<?xml version="1.0" encoding="UTF-8"?>

<!-- generated on 2023-02-03 17:24:09 by Eclipse SUMO libsumo Version v1_15_0+0841-ec7ac00463d
<configuration xmlns:xsi="http://www.w3.org/2001/XMLSchema-instance" xsi:noNamespaceSchemaLocation="http://sumo.dlr.de/xsd/libsumoConfiguration.xsd">

    <input>
        <net-file value="/home/liuli/SUMONBDT/sumoCfgs1/my1Lane1TLS.net.xml"/>
        <route-files value="/home/liuli/SUMONBDT/sumoCfgs1/m1Lane1Tls.rou.xml"/>
    </input>

    <output>
        <fcd-output value="/home/liuli/SUMONBDT/sumoCfgs1/fcd-output.xml"/>
        <full-output value="/home/liuli/SUMONBDT/sumoCfgs1/full-output.xml"/>
        <summary-output value="/home/liuli/SUMONBDT/sumoCfgs1/summary.xml"/>
    </output>

    <time>
        <begin value="0"/>
        <end value="50"/>
        <step-length value="0.1"/>
    </time>

    <processing>
        <ignore-route-errors value="true"/>
    </processing>

</configuration>
-->

<fcd-export xmlns:xsi="http://www.w3.org/2001/XMLSchema-instance" xsi:noNamespaceSchemaLocation="http://sumo.dlr.de/xsd/fcd_file.xsd">
    <timestep time="0.00"/>
    <timestep time="0.10">
        <vehicle id="d1" x="-1.00" y="-1.60" angle="90.00" type="EBUS2" speed="0.00" pos="199.00" lane="e1to2_0" slope="0.00"/>
        <vehicle id="d2" x="-6.50" y="-1.60" angle="90.00" type="EBUS2" speed="0.00" pos="193.50" lane="e1to2_0" slope="0.00"/>
        <vehicle id="d3" x="-12.02" y="-1.60" angle="90.00" type="EBUS2" speed="0.45" pos="187.98" lane="e1to2_0" slope="0.00"/>
        <vehicle id="d4" x="-80.75" y="-1.60" angle="90.00" type="EBUS2" speed="12.64" pos="119.25" lane="e1to2_0" slope="0.00"/>
        <vehicle id="o1" x="-122.55" y="-1.60" angle="90.00" type="EBUS" speed="13.53" pos="77.45" lane="e1to2_0" slope="0.00"/>
    </timestep>
    <timestep time="0.20">
        <vehicle id="d1" x="-1.00" y="-1.60" angle="90.00" type="EBUS2" speed="0.00" pos="199.00" lane="e1to2_0" slope="0.00"/>
        <vehicle id="d2" x="-6.47" y="-1.60" angle="90.00" type="EBUS2" speed="0.27" pos="193.53" lane="e1to2_0" slope="0.00"/>
        <vehicle id="d3" x="-11.95" y="-1.60" angle="90.00" type="EBUS2" speed="0.72" pos="188.05" lane="e1to2_0" slope="0.00"/>
        <vehicle id="d4" x="-79.46" y="-1.60" angle="90.00" type="EBUS2" speed="12.91" pos="120.54" lane="e1to2_0" slope="0.00"/>
        <vehicle id="o1" x="-121.17" y="-1.60" angle="90.00" type="EBUS" speed="13.81" pos="78.83" lane="e1to2_0" slope="0.00"/>
    </timestep>
    <timestep time="0.30">
        <vehicle id="d1" x="-1.00" y="-1.60" angle="90.00" type="EBUS2" speed="0.00" pos="199.00" lane="e1to2_0" slope="0.00"/>
        <vehicle id="d2" x="-6.42" y="-1.60" angle="90.00" type="EBUS2" speed="0.54" pos="193.58" lane="e1to2_0" slope="0.00"/>
        <vehicle id="d3" x="-11.86" y="-1.60" angle="90.00" type="EBUS2" speed="0.84" pos="188.14" lane="e1to2_0" slope="0.00"/>
        <vehicle id="d4" x="-78.14" y="-1.60" angle="90.00" type="EBUS2" speed="13.18" pos="121.86" lane="e1to2_0" slope="0.00"/>
        <vehicle id="o1" x="-119.76" y="-1.60" angle="90.00" type="EBUS" speed="14.09" pos="80.24" lane="e1to2_0" slope="0.00"/>
    </timestep>
    <timestep time="0.40">
        <vehicle id="d1" x="-1.00" y="-1.60" angle="90.00" type="EBUS2" speed="0.00" pos="199.00" lane="e1to2_0" slope="0.00"/>
        <vehicle id="d2" x="-6.35" y="-1.60" angle="90.00" type="EBUS2" speed="0.69" pos="193.65" lane="e1to2_0" slope="0.00"/>
        <vehicle id="d3" x="-11.79" y="-1.60" angle="90.00" type="EBUS2" speed="0.79" pos="188.21" lane="e1to2_0" slope="0.00"/>
        <vehicle id="d4" x="-76.80" y="-1.60" angle="90.00" type="EBUS2" speed="13.45" pos="123.20" lane="e1to2_0" slope="0.00"/>
        <vehicle id="o1" x="-118.32" y="-1.60" angle="90.00" type="EBUS" speed="14.38" pos="81.68" lane="e1to2_0" slope="0.00"/>
    </timestep>
    <timestep time="0.50">
        <vehicle id="d1" x="-1.00" y="-1.60" angle="90.00" type="EBUS2" speed="0.00" pos="199.00" lane="e1to2_0" slope="0.00"/>
        <vehicle id="d2" x="-6.30" y="-1.60" angle="90.00" type="EBUS2" speed="0.50" pos="193.70" lane="e1to2_0" slope="0.00"/>
        <vehicle id="d3" x="-11.71" y="-1.60" angle="90.00" type="EBUS2" speed="0.80" pos="188.29" lane="e1to2_0" slope="0.00"/>
        <vehicle id="d4" x="-75.42" y="-1.60" angle="90.00" type="EBUS2" speed="13.72" pos="124.58" lane="e1to2_0" slope="0.00"/>
        <vehicle id="o1" x="-116.86" y="-1.60" angle="90.00" type="EBUS" speed="14.66" pos="83.14" lane="e1to2_0" slope="0.00"/>
    </timestep>
    <timestep time="0.60">
        <vehicle id="d1" x="-1.00" y="-1.60" angle="90.00" type="EBUS2" speed="0.00" pos="199.00" lane="e1to2_0" slope="0.00"/>
        <vehicle id="d2" x="-6.27" y="-1.60" angle="90.00" type="EBUS2" speed="0.34" pos="193.73" lane="e1to2_0" slope="0.00"/>
        <vehicle id="d3" x="-11.64" y="-1.60" angle="90.00" type="EBUS2" speed="0.67" pos="188.36" lane="e1to2_0" slope="0.00"/>
        <vehicle id="d4" x="-74.03" y="-1.60" angle="90.00" type="EBUS2" speed="13.98" pos="125.97" lane="e1to2_0" slope="0.00"/>
        <vehicle id="o1" x="-115.36" y="-1.60" angle="90.00" type="EBUS" speed="14.94" pos="84.64" lane="e1to2_0" slope="0.00"/>
    </timestep>
    <timestep time="0.70">
        <vehicle id="d1" x="-1.00" y="-1.60" angle="90.00" type="EBUS2" speed="0.00" pos="199.00" lane="e1to2_0" slope="0.00"/>
        <vehicle id="d2" x="-6.24" y="-1.60" angle="90.00" type="EBUS2" speed="0.22" pos="193.76" lane="e1to2_0" slope="0.00"/>
        <vehicle id="d3" x="-11.58" y="-1.60" angle="90.00" type="EBUS2" speed="0.57" pos="188.42" lane="e1to2_0" slope="0.00"/>
        <vehicle id="d4" x="-72.60" y="-1.60" angle="90.00" type="EBUS2" speed="14.25" pos="127.40" lane="e1to2_0" slope="0.00"/>
        <vehicle id="o1" x="-113.84" y="-1.60" angle="90.00" type="EBUS" speed="15.22" pos="86.16" lane="e1to2_0" slope="0.00"/>
    </timestep>
    <timestep time="0.80">
        <vehicle id="d1" x="-1.00" y="-1.60" angle="90.00" type="EBUS2" speed="0.00" pos="199.00" lane="e1to2_0" slope="0.00"/>
        <vehicle id="d2" x="-6.23" y="-1.60" angle="90.00" type="EBUS2" speed="0.14" pos="193.77" lane="e1to2_0" slope="0.00"/>
        <vehicle id="d3" x="-11.54" y="-1.60" angle="90.00" type="EBUS2" speed="0.47" pos="188.46" lane="e1to2_0" slope="0.00"/>
        <vehicle id="d4" x="-71.15" y="-1.60" angle="90.00" type="EBUS2" speed="14.52" pos="128.85" lane="e1to2_0" slope="0.00"/>
        <vehicle id="o1" x="-112.29" y="-1.60" angle="90.00" type="EBUS" speed="15.50" pos="87.71" lane="e1to2_0" slope="0.00"/>
    </timestep>
    <timestep time="0.90">
        <vehicle id="d1" x="-1.00" y="-1.60" angle="90.00" type="EBUS2" speed="0.00" pos="199.00" lane="e1to2_0" slope="0.00"/>
        <vehicle id="d2" x="-6.22" y="-1.60" angle="90.00" type="EBUS2" speed="0.09" pos="193.78" lane="e1to2_0" slope="0.00"/>
        <vehicle id="d3" x="-11.50" y="-1.60" angle="90.00" type="EBUS2" speed="0.36" pos="188.50" lane="e1to2_0" slope="0.00"/>
        <vehicle id="d4" x="-69.67" y="-1.60" angle="90.00" type="EBUS2" speed="14.79" pos="130.33" lane="e1to2_0" slope="0.00"/>
        <vehicle id="o1" x="-110.71" y="-1.60" angle="90.00" type="EBUS" speed="15.78" pos="89.29" lane="e1to2_0" slope="0.00"/>
    </timestep>
    <timestep time="1.00">
        <vehicle id="d1" x="-1.00" y="-1.60" angle="90.00" type="EBUS2" speed="0.00" pos="199.00" lane="e1to2_0" slope="0.00"/>
        <vehicle id="d2" x="-6.22" y="-1.60" angle="90.00" type="EBUS2" speed="0.05" pos="193.78" lane="e1to2_0" slope="0.00"/>
        <vehicle id="d3" x="-11.47" y="-1.60" angle="90.00" type="EBUS2" speed="0.26" pos="188.53" lane="e1to2_0" slope="0.00"/>
        <vehicle id="d4" x="-68.16" y="-1.60" angle="90.00" type="EBUS2" speed="15.06" pos="131.84" lane="e1to2_0" slope="0.00"/>
        <vehicle id="o1" x="-109.10" y="-1.60" angle="90.00" type="EBUS" speed="16.07" pos="90.90" lane="e1to2_0" slope="0.00"/>
    </timestep>
    <timestep time="1.10">
        <vehicle id="d1" x="-1.00" y="-1.60" angle="90.00" type="EBUS2" speed="0.00" pos="199.00" lane="e1to2_0" slope="0.00"/>
        <vehicle id="d2" x="-6.21" y="-1.60" angle="90.00" type="EBUS2" speed="0.03" pos="193.79" lane="e1to2_0" slope="0.00"/>
        <vehicle id="d3" x="-11.45" y="-1.60" angle="90.00" type="EBUS2" speed="0.18" pos="188.55" lane="e1to2_0" slope="0.00"/>
        <vehicle id="d4" x="-66.63" y="-1.60" angle="90.00" type="EBUS2" speed="15.33" pos="133.37" lane="e1to2_0" slope="0.00"/>
        <vehicle id="o1" x="-107.47" y="-1.60" angle="90.00" type="EBUS" speed="16.35" pos="92.53" lane="e1to2_0" slope="0.00"/>
    </timestep>
    <timestep time="1.20">
        <vehicle id="d1" x="-1.00" y="-1.60" angle="90.00" type="EBUS2" speed="0.00" pos="199.00" lane="e1to2_0" slope="0.00"/>
        <vehicle id="d2" x="-6.21" y="-1.60" angle="90.00" type="EBUS2" speed="0.02" pos="193.79" lane="e1to2_0" slope="0.00"/>
        <vehicle id="d3" x="-11.44" y="-1.60" angle="90.00" type="EBUS2" speed="0.13" pos="188.56" lane="e1to2_0" slope="0.00"/>
        <vehicle id="d4" x="-65.07" y="-1.60" angle="90.00" type="EBUS2" speed="15.60" pos="134.93" lane="e1to2_0" slope="0.00"/>
        <vehicle id="o1" x="-105.81" y="-1.60" angle="90.00" type="EBUS" speed="16.63" pos="94.19" lane="e1to2_0" slope="0.00"/>
    </timestep>
    <timestep time="1.30">
        <vehicle id="d1" x="-1.00" y="-1.60" angle="90.00" type="EBUS2" speed="0.00" pos="199.00" lane="e1to2_0" slope="0.00"/>
        <vehicle id="d2" x="-6.21" y="-1.60" angle="90.00" type="EBUS2" speed="0.01" pos="193.79" lane="e1to2_0" slope="0.00"/>
        <vehicle id="d3" x="-11.43" y="-1.60" angle="90.00" type="EBUS2" speed="0.09" pos="188.57" lane="e1to2_0" slope="0.00"/>
        <vehicle id="d4" x="-63.49" y="-1.60" angle="90.00" type="EBUS2" speed="15.87" pos="136.51" lane="e1to2_0" slope="0.00"/>
        <vehicle id="o1" x="-104.11" y="-1.60" angle="90.00" type="EBUS" speed="16.91" pos="95.89" lane="e1to2_0" slope="0.00"/>
    </timestep>
    <timestep time="1.40">
        <vehicle id="d1" x="-1.00" y="-1.60" angle="90.00" type="EBUS2" speed="0.00" pos="199.00" lane="e1to2_0" slope="0.00"/>
        <vehicle id="d2" x="-6.21" y="-1.60" angle="90.00" type="EBUS2" speed="0.01" pos="193.79" lane="e1to2_0" slope="0.00"/>
        <vehicle id="d3" x="-11.43" y="-1.60" angle="90.00" type="EBUS2" speed="0.06" pos="188.57" lane="e1to2_0" slope="0.00"/>
        <vehicle id="d4" x="-61.87" y="-1.60" angle="90.00" type="EBUS2" speed="16.13" pos="138.13" lane="e1to2_0" slope="0.00"/>
        <vehicle id="o1" x="-102.39" y="-1.60" angle="90.00" type="EBUS" speed="17.20" pos="97.61" lane="e1to2_0" slope="0.00"/>
    </timestep>
    <timestep time="1.50">
        <vehicle id="d1" x="-1.00" y="-1.60" angle="90.00" type="EBUS2" speed="0.00" pos="199.00" lane="e1to2_0" slope="0.00"/>
        <vehicle id="d2" x="-6.21" y="-1.60" angle="90.00" type="EBUS2" speed="0.01" pos="193.79" lane="e1to2_0" slope="0.00"/>
        <vehicle id="d3" x="-11.42" y="-1.60" angle="90.00" type="EBUS2" speed="0.04" pos="188.58" lane="e1to2_0" slope="0.00"/>
        <vehicle id="d4" x="-60.23" y="-1.60" angle="90.00" type="EBUS2" speed="16.40" pos="139.77" lane="e1to2_0" slope="0.00"/>
        <vehicle id="o1" x="-100.65" y="-1.60" angle="90.00" type="EBUS" speed="17.48" pos="99.35" lane="e1to2_0" slope="0.00"/>
    </timestep>
    <timestep time="1.60">
        <vehicle id="d1" x="-1.00" y="-1.60" angle="90.00" type="EBUS2" speed="0.00" pos="199.00" lane="e1to2_0" slope="0.00"/>
        <vehicle id="d2" x="-6.21" y="-1.60" angle="90.00" type="EBUS2" speed="0.00" pos="193.79" lane="e1to2_0" slope="0.00"/>
        <vehicle id="d3" x="-11.42" y="-1.60" angle="90.00" type="EBUS2" speed="0.03" pos="188.58" lane="e1to2_0" slope="0.00"/>
        <vehicle id="d4" x="-58.56" y="-1.60" angle="90.00" type="EBUS2" speed="16.67" pos="141.44" lane="e1to2_0" slope="0.00"/>
        <vehicle id="o1" x="-98.87" y="-1.60" angle="90.00" type="EBUS" speed="17.76" pos="101.13" lane="e1to2_0" slope="0.00"/>
    </timestep>
    <timestep time="1.70">
        <vehicle id="d1" x="-1.00" y="-1.60" angle="90.00" type="EBUS2" speed="0.00" pos="199.00" lane="e1to2_0" slope="0.00"/>
        <vehicle id="d2" x="-6.21" y="-1.60" angle="90.00" type="EBUS2" speed="0.00" pos="193.79" lane="e1to2_0" slope="0.00"/>
        <vehicle id="d3" x="-11.42" y="-1.60" angle="90.00" type="EBUS2" speed="0.02" pos="188.58" lane="e1to2_0" slope="0.00"/>
        <vehicle id="d4" x="-56.87" y="-1.60" angle="90.00" type="EBUS2" speed="16.94" pos="143.13" lane="e1to2_0" slope="0.00"/>
        <vehicle id="o1" x="-97.07" y="-1.60" angle="90.00" type="EBUS" speed="18.04" pos="102.93" lane="e1to2_0" slope="0.00"/>
    </timestep>
    <timestep time="1.80">
        <vehicle id="d1" x="-1.00" y="-1.60" angle="90.00" type="EBUS2" speed="0.00" pos="199.00" lane="e1to2_0" slope="0.00"/>
        <vehicle id="d2" x="-6.21" y="-1.60" angle="90.00" type="EBUS2" speed="0.00" pos="193.79" lane="e1to2_0" slope="0.00"/>
        <vehicle id="d3" x="-11.42" y="-1.60" angle="90.00" type="EBUS2" speed="0.01" pos="188.58" lane="e1to2_0" slope="0.00"/>
        <vehicle id="d4" x="-55.15" y="-1.60" angle="90.00" type="EBUS2" speed="17.21" pos="144.85" lane="e1to2_0" slope="0.00"/>
        <vehicle id="o1" x="-95.23" y="-1.60" angle="90.00" type="EBUS" speed="18.33" pos="104.77" lane="e1to2_0" slope="0.00"/>
    </timestep>
    <timestep time="1.90">
        <vehicle id="d1" x="-0.97" y="-1.60" angle="90.00" type="EBUS2" speed="0.27" pos="199.03" lane="e1to2_0" slope="0.00"/>
        <vehicle id="d2" x="-6.21" y="-1.60" angle="90.00" type="EBUS2" speed="0.00" pos="193.79" lane="e1to2_0" slope="0.00"/>
        <vehicle id="d3" x="-11.41" y="-1.60" angle="90.00" type="EBUS2" speed="0.01" pos="188.59" lane="e1to2_0" slope="0.00"/>
        <vehicle id="d4" x="-53.40" y="-1.60" angle="90.00" type="EBUS2" speed="17.46" pos="146.60" lane="e1to2_0" slope="0.00"/>
        <vehicle id="o1" x="-93.37" y="-1.60" angle="90.00" type="EBUS" speed="18.61" pos="106.63" lane="e1to2_0" slope="0.00"/>
    </timestep>
    <timestep time="2.00">
        <vehicle id="d1" x="-0.92" y="-1.60" angle="90.00" type="EBUS2" speed="0.54" pos="199.08" lane="e1to2_0" slope="0.00"/>
        <vehicle id="d2" x="-6.20" y="-1.60" angle="90.00" type="EBUS2" speed="0.10" pos="193.80" lane="e1to2_0" slope="0.00"/>
        <vehicle id="d3" x="-11.41" y="-1.60" angle="90.00" type="EBUS2" speed="0.01" pos="188.59" lane="e1to2_0" slope="0.00"/>
        <vehicle id="d4" x="-51.70" y="-1.60" angle="90.00" type="EBUS2" speed="17.04" pos="148.30" lane="e1to2_0" slope="0.00"/>
        <vehicle id="o1" x="-91.48" y="-1.60" angle="90.00" type="EBUS" speed="18.89" pos="108.52" lane="e1to2_0" slope="0.00"/>
    </timestep>
    <timestep time="2.10">
        <vehicle id="d1" x="-0.84" y="-1.60" angle="90.00" type="EBUS2" speed="0.81" pos="199.16" lane="e1to2_0" slope="0.00"/>
        <vehicle id="d2" x="-6.17" y="-1.60" angle="90.00" type="EBUS2" speed="0.30" pos="193.83" lane="e1to2_0" slope="0.00"/>
        <vehicle id="d3" x="-11.41" y="-1.60" angle="90.00" type="EBUS2" speed="0.04" pos="188.59" lane="e1to2_0" slope="0.00"/>
        <vehicle id="d4" x="-50.04" y="-1.60" angle="90.00" type="EBUS2" speed="16.62" pos="149.96" lane="e1to2_0" slope="0.00"/>
        <vehicle id="o1" x="-89.57" y="-1.60" angle="90.00" type="EBUS" speed="19.17" pos="110.43" lane="e1to2_0" slope="0.00"/>
    </timestep>
    <timestep time="2.20">
        <vehicle id="d1" x="-0.73" y="-1.60" angle="90.00" type="EBUS2" speed="1.08" pos="199.27" lane="e1to2_0" slope="0.00"/>
        <vehicle id="d2" x="-6.11" y="-1.60" angle="90.00" type="EBUS2" speed="0.55" pos="193.89" lane="e1to2_0" slope="0.00"/>
        <vehicle id="d3" x="-11.40" y="-1.60" angle="90.00" type="EBUS2" speed="0.13" pos="188.60" lane="e1to2_0" slope="0.00"/>
        <vehicle id="d4" x="-48.42" y="-1.60" angle="90.00" type="EBUS2" speed="16.20" pos="151.58" lane="e1to2_0" slope="0.00"/>
        <vehicle id="o1" x="-87.62" y="-1.60" angle="90.00" type="EBUS" speed="19.45" pos="112.38" lane="e1to2_0" slope="0.00"/>
    </timestep>
    <timestep time="2.30">
        <vehicle id="d1" x="-0.60" y="-1.60" angle="90.00" type="EBUS2" speed="1.35" pos="199.40" lane="e1to2_0" slope="0.00"/>
        <vehicle id="d2" x="-6.03" y="-1.60" angle="90.00" type="EBUS2" speed="0.82" pos="193.97" lane="e1to2_0" slope="0.00"/>
        <vehicle id="d3" x="-11.36" y="-1.60" angle="90.00" type="EBUS2" speed="0.32" pos="188.64" lane="e1to2_0" slope="0.00"/>
        <vehicle id="d4" x="-46.84" y="-1.60" angle="90.00" type="EBUS2" speed="15.79" pos="153.16" lane="e1to2_0" slope="0.00"/>
        <vehicle id="o1" x="-85.65" y="-1.60" angle="90.00" type="EBUS" speed="19.74" pos="114.35" lane="e1to2_0" slope="0.00"/>
    </timestep>
    <timestep time="2.40">
        <vehicle id="d1" x="-0.43" y="-1.60" angle="90.00" type="EBUS2" speed="1.62" pos="199.57" lane="e1to2_0" slope="0.00"/>
        <vehicle id="d2" x="-5.92" y="-1.60" angle="90.00" type="EBUS2" speed="1.06" pos="194.08" lane="e1to2_0" slope="0.00"/>
        <vehicle id="d3" x="-11.31" y="-1.60" angle="90.00" type="EBUS2" speed="0.56" pos="188.69" lane="e1to2_0" slope="0.00"/>
        <vehicle id="d4" x="-45.30" y="-1.60" angle="90.00" type="EBUS2" speed="15.37" pos="154.70" lane="e1to2_0" slope="0.00"/>
        <vehicle id="o1" x="-83.65" y="-1.60" angle="90.00" type="EBUS" speed="20.02" pos="116.35" lane="e1to2_0" slope="0.00"/>
    </timestep>
    <timestep time="2.50">
        <vehicle id="d1" x="-0.24" y="-1.60" angle="90.00" type="EBUS2" speed="1.89" pos="199.76" lane="e1to2_0" slope="0.00"/>
        <vehicle id="d2" x="-5.79" y="-1.60" angle="90.00" type="EBUS2" speed="1.33" pos="194.21" lane="e1to2_0" slope="0.00"/>
        <vehicle id="d3" x="-11.23" y="-1.60" angle="90.00" type="EBUS2" speed="0.81" pos="188.77" lane="e1to2_0" slope="0.00"/>
        <vehicle id="d4" x="-43.80" y="-1.60" angle="90.00" type="EBUS2" speed="14.97" pos="156.20" lane="e1to2_0" slope="0.00"/>
        <vehicle id="o1" x="-81.62" y="-1.60" angle="90.00" type="EBUS" speed="20.30" pos="118.38" lane="e1to2_0" slope="0.00"/>
    </timestep>
    <timestep time="2.60">
        <vehicle id="d1" x="-0.03" y="-1.60" angle="90.00" type="EBUS2" speed="2.16" pos="199.97" lane="e1to2_0" slope="0.00"/>
        <vehicle id="d2" x="-5.63" y="-1.60" angle="90.00" type="EBUS2" speed="1.60" pos="194.37" lane="e1to2_0" slope="0.00"/>
        <vehicle id="d3" x="-11.12" y="-1.60" angle="90.00" type="EBUS2" speed="1.05" pos="188.88" lane="e1to2_0" slope="0.00"/>
        <vehicle id="d4" x="-42.35" y="-1.60" angle="90.00" type="EBUS2" speed="14.58" pos="157.65" lane="e1to2_0" slope="0.00"/>
        <vehicle id="o1" x="-79.56" y="-1.60" angle="90.00" type="EBUS" speed="20.58" pos="120.44" lane="e1to2_0" slope="0.00"/>
    </timestep>
    <timestep time="2.70">
        <vehicle id="d1" x="0.11" y="-1.60" angle="90.00" type="EBUS2" speed="2.43" pos="0.11" lane="e2to3_0" slope="0.00"/>
        <vehicle id="d2" x="-5.44" y="-1.60" angle="90.00" type="EBUS2" speed="1.87" pos="194.56" lane="e1to2_0" slope="0.00"/>
        <vehicle id="d3" x="-10.99" y="-1.60" angle="90.00" type="EBUS2" speed="1.32" pos="189.01" lane="e1to2_0" slope="0.00"/>
        <vehicle id="d4" x="-40.92" y="-1.60" angle="90.00" type="EBUS2" speed="14.21" pos="159.08" lane="e1to2_0" slope="0.00"/>
        <vehicle id="o1" x="-77.47" y="-1.60" angle="90.00" type="EBUS" speed="20.87" pos="122.53" lane="e1to2_0" slope="0.00"/>
    </timestep>
    <timestep time="2.80">
        <vehicle id="d1" x="0.38" y="-1.60" angle="90.00" type="EBUS2" speed="2.70" pos="0.38" lane="e2to3_0" slope="0.00"/>
        <vehicle id="d2" x="-5.23" y="-1.60" angle="90.00" type="EBUS2" speed="2.14" pos="194.77" lane="e1to2_0" slope="0.00"/>
        <vehicle id="d3" x="-10.83" y="-1.60" angle="90.00" type="EBUS2" speed="1.59" pos="189.17" lane="e1to2_0" slope="0.00"/>
        <vehicle id="d4" x="-39.54" y="-1.60" angle="90.00" type="EBUS2" speed="13.84" pos="160.46" lane="e1to2_0" slope="0.00"/>
        <vehicle id="o1" x="-75.36" y="-1.60" angle="90.00" type="EBUS" speed="21.15" pos="124.64" lane="e1to2_0" slope="0.00"/>
    </timestep>
    <timestep time="2.90">
        <vehicle id="d1" x="0.68" y="-1.60" angle="90.00" type="EBUS2" speed="2.97" pos="0.68" lane="e2to3_0" slope="0.00"/>
        <vehicle id="d2" x="-4.99" y="-1.60" angle="90.00" type="EBUS2" speed="2.41" pos="195.01" lane="e1to2_0" slope="0.00"/>
        <vehicle id="d3" x="-10.65" y="-1.60" angle="90.00" type="EBUS2" speed="1.86" pos="189.35" lane="e1to2_0" slope="0.00"/>
        <vehicle id="d4" x="-38.19" y="-1.60" angle="90.00" type="EBUS2" speed="13.50" pos="161.81" lane="e1to2_0" slope="0.00"/>
        <vehicle id="o1" x="-73.25" y="-1.60" angle="90.00" type="EBUS" speed="21.08" pos="126.75" lane="e1to2_0" slope="0.00"/>
    </timestep>
    <timestep time="3.00">
        <vehicle id="d1" x="1.00" y="-1.60" angle="90.00" type="EBUS2" speed="3.24" pos="1.00" lane="e2to3_0" slope="0.00"/>
        <vehicle id="d2" x="-4.72" y="-1.60" angle="90.00" type="EBUS2" speed="2.68" pos="195.28" lane="e1to2_0" slope="0.00"/>
        <vehicle id="d3" x="-10.43" y="-1.60" angle="90.00" type="EBUS2" speed="2.13" pos="189.57" lane="e1to2_0" slope="0.00"/>
        <vehicle id="d4" x="-36.87" y="-1.60" angle="90.00" type="EBUS2" speed="13.17" pos="163.13" lane="e1to2_0" slope="0.00"/>
        <vehicle id="o1" x="-71.18" y="-1.60" angle="90.00" type="EBUS" speed="20.69" pos="128.82" lane="e1to2_0" slope="0.00"/>
    </timestep>
    <timestep time="3.10">
        <vehicle id="d1" x="1.36" y="-1.60" angle="90.00" type="EBUS2" speed="3.50" pos="1.36" lane="e2to3_0" slope="0.00"/>
        <vehicle id="d2" x="-4.43" y="-1.60" angle="90.00" type="EBUS2" speed="2.95" pos="195.57" lane="e1to2_0" slope="0.00"/>
        <vehicle id="d3" x="-10.19" y="-1.60" angle="90.00" type="EBUS2" speed="2.39" pos="189.81" lane="e1to2_0" slope="0.00"/>
        <vehicle id="d4" x="-35.59" y="-1.60" angle="90.00" type="EBUS2" speed="12.86" pos="164.41" lane="e1to2_0" slope="0.00"/>
        <vehicle id="o1" x="-69.15" y="-1.60" angle="90.00" type="EBUS" speed="20.31" pos="130.85" lane="e1to2_0" slope="0.00"/>
    </timestep>
    <timestep time="3.20">
        <vehicle id="d1" x="1.73" y="-1.60" angle="90.00" type="EBUS2" speed="3.77" pos="1.73" lane="e2to3_0" slope="0.00"/>
        <vehicle id="d2" x="-4.10" y="-1.60" angle="90.00" type="EBUS2" speed="3.22" pos="195.90" lane="e1to2_0" slope="0.00"/>
        <vehicle id="d3" x="-9.93" y="-1.60" angle="90.00" type="EBUS2" speed="2.66" pos="190.07" lane="e1to2_0" slope="0.00"/>
        <vehicle id="d4" x="-34.33" y="-1.60" angle="90.00" type="EBUS2" speed="12.56" pos="165.67" lane="e1to2_0" slope="0.00"/>
        <vehicle id="o1" x="-67.15" y="-1.60" angle="90.00" type="EBUS" speed="19.93" pos="132.85" lane="e1to2_0" slope="0.00"/>
    </timestep>
    <timestep time="3.30">
        <vehicle id="d1" x="2.14" y="-1.60" angle="90.00" type="EBUS2" speed="4.04" pos="2.14" lane="e2to3_0" slope="0.00"/>
        <vehicle id="d2" x="-3.76" y="-1.60" angle="90.00" type="EBUS2" speed="3.49" pos="196.24" lane="e1to2_0" slope="0.00"/>
        <vehicle id="d3" x="-9.63" y="-1.60" angle="90.00" type="EBUS2" speed="2.93" pos="190.37" lane="e1to2_0" slope="0.00"/>
        <vehicle id="d4" x="-33.10" y="-1.60" angle="90.00" type="EBUS2" speed="12.28" pos="166.90" lane="e1to2_0" slope="0.00"/>
        <vehicle id="o1" x="-65.20" y="-1.60" angle="90.00" type="EBUS" speed="19.56" pos="134.80" lane="e1to2_0" slope="0.00"/>
    </timestep>
    <timestep time="3.40">
        <vehicle id="d1" x="2.57" y="-1.60" angle="90.00" type="EBUS2" speed="4.31" pos="2.57" lane="e2to3_0" slope="0.00"/>
        <vehicle id="d2" x="-3.38" y="-1.60" angle="90.00" type="EBUS2" speed="3.76" pos="196.62" lane="e1to2_0" slope="0.00"/>
        <vehicle id="d3" x="-9.31" y="-1.60" angle="90.00" type="EBUS2" speed="3.20" pos="190.69" lane="e1to2_0" slope="0.00"/>
        <vehicle id="d4" x="-31.90" y="-1.60" angle="90.00" type="EBUS2" speed="12.02" pos="168.10" lane="e1to2_0" slope="0.00"/>
        <vehicle id="o1" x="-63.28" y="-1.60" angle="90.00" type="EBUS" speed="19.21" pos="136.72" lane="e1to2_0" slope="0.00"/>
    </timestep>
    <timestep time="3.50">
        <vehicle id="d1" x="3.03" y="-1.60" angle="90.00" type="EBUS2" speed="4.58" pos="3.03" lane="e2to3_0" slope="0.00"/>
        <vehicle id="d2" x="-2.98" y="-1.60" angle="90.00" type="EBUS2" speed="4.02" pos="197.02" lane="e1to2_0" slope="0.00"/>
        <vehicle id="d3" x="-8.97" y="-1.60" angle="90.00" type="EBUS2" speed="3.47" pos="191.03" lane="e1to2_0" slope="0.00"/>
        <vehicle id="d4" x="-30.72" y="-1.60" angle="90.00" type="EBUS2" speed="11.78" pos="169.28" lane="e1to2_0" slope="0.00"/>
        <vehicle id="o1" x="-61.39" y="-1.60" angle="90.00" type="EBUS" speed="18.86" pos="138.61" lane="e1to2_0" slope="0.00"/>
    </timestep>
    <timestep time="3.60">
        <vehicle id="d1" x="3.51" y="-1.60" angle="90.00" type="EBUS2" speed="4.85" pos="3.51" lane="e2to3_0" slope="0.00"/>
        <vehicle id="d2" x="-2.55" y="-1.60" angle="90.00" type="EBUS2" speed="4.29" pos="197.45" lane="e1to2_0" slope="0.00"/>
        <vehicle id="d3" x="-8.59" y="-1.60" angle="90.00" type="EBUS2" speed="3.74" pos="191.41" lane="e1to2_0" slope="0.00"/>
        <vehicle id="d4" x="-29.57" y="-1.60" angle="90.00" type="EBUS2" speed="11.56" pos="170.43" lane="e1to2_0" slope="0.00"/>
        <vehicle id="o1" x="-59.54" y="-1.60" angle="90.00" type="EBUS" speed="18.52" pos="140.46" lane="e1to2_0" slope="0.00"/>
    </timestep>
    <timestep time="3.70">
        <vehicle id="d1" x="4.02" y="-1.60" angle="90.00" type="EBUS2" speed="5.12" pos="4.02" lane="e2to3_0" slope="0.00"/>
        <vehicle id="d2" x="-2.09" y="-1.60" angle="90.00" type="EBUS2" speed="4.56" pos="197.91" lane="e1to2_0" slope="0.00"/>
        <vehicle id="d3" x="-8.19" y="-1.60" angle="90.00" type="EBUS2" speed="4.00" pos="191.81" lane="e1to2_0" slope="0.00"/>
        <vehicle id="d4" x="-28.43" y="-1.60" angle="90.00" type="EBUS2" speed="11.35" pos="171.57" lane="e1to2_0" slope="0.00"/>
        <vehicle id="o1" x="-57.72" y="-1.60" angle="90.00" type="EBUS" speed="18.20" pos="142.28" lane="e1to2_0" slope="0.00"/>
    </timestep>
    <timestep time="3.80">
        <vehicle id="d1" x="4.56" y="-1.60" angle="90.00" type="EBUS2" speed="5.39" pos="4.56" lane="e2to3_0" slope="0.00"/>
        <vehicle id="d2" x="-1.61" y="-1.60" angle="90.00" type="EBUS2" speed="4.83" pos="198.39" lane="e1to2_0" slope="0.00"/>
        <vehicle id="d3" x="-7.77" y="-1.60" angle="90.00" type="EBUS2" speed="4.27" pos="192.23" lane="e1to2_0" slope="0.00"/>
        <vehicle id="d4" x="-27.31" y="-1.60" angle="90.00" type="EBUS2" speed="11.17" pos="172.69" lane="e1to2_0" slope="0.00"/>
        <vehicle id="o1" x="-55.93" y="-1.60" angle="90.00" type="EBUS" speed="17.89" pos="144.07" lane="e1to2_0" slope="0.00"/>
    </timestep>
    <timestep time="3.90">
        <vehicle id="d1" x="5.13" y="-1.60" angle="90.00" type="EBUS2" speed="5.66" pos="5.13" lane="e2to3_0" slope="0.00"/>
        <vehicle id="d2" x="-1.10" y="-1.60" angle="90.00" type="EBUS2" speed="5.10" pos="198.90" lane="e1to2_0" slope="0.00"/>
        <vehicle id="d3" x="-7.31" y="-1.60" angle="90.00" type="EBUS2" speed="4.54" pos="192.69" lane="e1to2_0" slope="0.00"/>
        <vehicle id="d4" x="-26.21" y="-1.60" angle="90.00" type="EBUS2" speed="11.00" pos="173.79" lane="e1to2_0" slope="0.00"/>
        <vehicle id="o1" x="-54.17" y="-1.60" angle="90.00" type="EBUS" speed="17.58" pos="145.83" lane="e1to2_0" slope="0.00"/>
    </timestep>
    <timestep time="4.00">
        <vehicle id="d1" x="5.72" y="-1.60" angle="90.00" type="EBUS2" speed="5.93" pos="5.72" lane="e2to3_0" slope="0.00"/>
        <vehicle id="d2" x="-0.56" y="-1.60" angle="90.00" type="EBUS2" speed="5.37" pos="199.44" lane="e1to2_0" slope="0.00"/>
        <vehicle id="d3" x="-6.83" y="-1.60" angle="90.00" type="EBUS2" speed="4.81" pos="193.17" lane="e1to2_0" slope="0.00"/>
        <vehicle id="d4" x="-25.13" y="-1.60" angle="90.00" type="EBUS2" speed="10.86" pos="174.87" lane="e1to2_0" slope="0.00"/>
        <vehicle id="o1" x="-52.44" y="-1.60" angle="90.00" type="EBUS" speed="17.30" pos="147.56" lane="e1to2_0" slope="0.00"/>
    </timestep>
    <timestep time="4.10">
        <vehicle id="d1" x="6.34" y="-1.60" angle="90.00" type="EBUS2" speed="6.19" pos="6.34" lane="e2to3_0" slope="0.00"/>
        <vehicle id="d2" x="0.00" y="-1.60" angle="90.00" type="EBUS2" speed="5.64" pos="0.00" lane=":2_0_0" slope="0.00"/>
        <vehicle id="d3" x="-6.32" y="-1.60" angle="90.00" type="EBUS2" speed="5.08" pos="193.68" lane="e1to2_0" slope="0.00"/>
        <vehicle id="d4" x="-24.06" y="-1.60" angle="90.00" type="EBUS2" speed="10.73" pos="175.94" lane="e1to2_0" slope="0.00"/>
        <vehicle id="o1" x="-50.74" y="-1.60" angle="90.00" type="EBUS" speed="17.02" pos="149.26" lane="e1to2_0" slope="0.00"/>
    </timestep>
    <timestep time="4.20">
        <vehicle id="d1" x="6.99" y="-1.60" angle="90.00" type="EBUS2" speed="6.46" pos="6.99" lane="e2to3_0" slope="0.00"/>
        <vehicle id="d2" x="0.49" y="-1.60" angle="90.00" type="EBUS2" speed="5.90" pos="0.49" lane="e2to3_0" slope="0.00"/>
        <vehicle id="d3" x="-5.79" y="-1.60" angle="90.00" type="EBUS2" speed="5.35" pos="194.21" lane="e1to2_0" slope="0.00"/>
        <vehicle id="d4" x="-22.99" y="-1.60" angle="90.00" type="EBUS2" speed="10.63" pos="177.01" lane="e1to2_0" slope="0.00"/>
        <vehicle id="o1" x="-49.07" y="-1.60" angle="90.00" type="EBUS" speed="16.75" pos="150.93" lane="e1to2_0" slope="0.00"/>
    </timestep>
    <timestep time="4.30">