<?xml version="1.0" encoding="UTF-8"?>

<!-- generated on 2023-08-02 08:58:30 by Eclipse SUMO libsumo Version v1_15_0+0841-ec7ac00463d
<configuration xmlns:xsi="http://www.w3.org/2001/XMLSchema-instance" xsi:noNamespaceSchemaLocation="http://sumo.dlr.de/xsd/libsumoConfiguration.xsd">

    <input>
        <net-file value="/home/liuli/myCodes/SUMONBDT//sumoCfgs1/my1Lane1TLS.net.xml"/>
        <route-files value="/home/liuli/myCodes/SUMONBDT//sumoCfgs1/m1Lane1Tls.rou.xml"/>
    </input>

    <output>
        <fcd-output value="/home/liuli/myCodes/SUMONBDT//sumoCfgs1/fcd-output.xml"/>
        <full-output value="/home/liuli/myCodes/SUMONBDT//sumoCfgs1/full-output.xml"/>
        <summary-output value="/home/liuli/myCodes/SUMONBDT//sumoCfgs1/summary.xml"/>
    </output>

    <time>
        <begin value="0"/>
        <end value="50"/>
        <step-length value="0.1"/>
    </time>

    <report>
        <no-warnings value="true"/>
    </report>

</configuration>
-->

<fcd-export xmlns:xsi="http://www.w3.org/2001/XMLSchema-instance" xsi:noNamespaceSchemaLocation="http://sumo.dlr.de/xsd/fcd_file.xsd">
    <timestep time="0.00"/>
    <timestep time="0.10">
        <vehicle id="d1" x="-1.00" y="-1.60" angle="90.00" type="EBUS2" speed="0.00" pos="199.00" lane="e1to2_0" slope="0.00"/>
        <vehicle id="d2" x="-6.50" y="-1.60" angle="90.00" type="EBUS2" speed="0.00" pos="193.50" lane="e1to2_0" slope="0.00"/>
        <vehicle id="d3" x="-12.00" y="-1.60" angle="90.00" type="EBUS2" speed="0.00" pos="188.00" lane="e1to2_0" slope="0.00"/>
        <vehicle id="o1" x="-17.50" y="-1.60" angle="90.00" type="EBUS" speed="0.00" pos="182.50" lane="e1to2_0" slope="0.00"/>
    </timestep>
    <timestep time="0.20">
        <vehicle id="d1" x="-1.00" y="-1.60" angle="90.00" type="EBUS2" speed="0.00" pos="199.00" lane="e1to2_0" slope="0.00"/>
        <vehicle id="d2" x="-6.48" y="-1.60" angle="90.00" type="EBUS2" speed="0.16" pos="193.52" lane="e1to2_0" slope="0.00"/>
        <vehicle id="d3" x="-11.98" y="-1.60" angle="90.00" type="EBUS2" speed="0.16" pos="188.02" lane="e1to2_0" slope="0.00"/>
        <vehicle id="o1" x="-17.48" y="-1.60" angle="90.00" type="EBUS" speed="0.17" pos="182.52" lane="e1to2_0" slope="0.00"/>
    </timestep>
    <timestep time="0.30">
        <vehicle id="d1" x="-1.00" y="-1.60" angle="90.00" type="EBUS2" speed="0.00" pos="199.00" lane="e1to2_0" slope="0.00"/>
        <vehicle id="d2" x="-6.45" y="-1.60" angle="90.00" type="EBUS2" speed="0.32" pos="193.55" lane="e1to2_0" slope="0.00"/>
        <vehicle id="d3" x="-11.95" y="-1.60" angle="90.00" type="EBUS2" speed="0.32" pos="188.05" lane="e1to2_0" slope="0.00"/>
        <vehicle id="o1" x="-17.45" y="-1.60" angle="90.00" type="EBUS" speed="0.34" pos="182.55" lane="e1to2_0" slope="0.00"/>
    </timestep>
    <timestep time="0.40">
        <vehicle id="d1" x="-1.00" y="-1.60" angle="90.00" type="EBUS2" speed="0.00" pos="199.00" lane="e1to2_0" slope="0.00"/>
        <vehicle id="d2" x="-6.40" y="-1.60" angle="90.00" type="EBUS2" speed="0.48" pos="193.60" lane="e1to2_0" slope="0.00"/>
        <vehicle id="d3" x="-11.90" y="-1.60" angle="90.00" type="EBUS2" speed="0.48" pos="188.10" lane="e1to2_0" slope="0.00"/>
        <vehicle id="o1" x="-17.40" y="-1.60" angle="90.00" type="EBUS" speed="0.51" pos="182.60" lane="e1to2_0" slope="0.00"/>
    </timestep>
    <timestep time="0.50">
        <vehicle id="d1" x="-1.00" y="-1.60" angle="90.00" type="EBUS2" speed="0.00" pos="199.00" lane="e1to2_0" slope="0.00"/>
        <vehicle id="d2" x="-6.34" y="-1.60" angle="90.00" type="EBUS2" speed="0.64" pos="193.66" lane="e1to2_0" slope="0.00"/>
        <vehicle id="d3" x="-11.84" y="-1.60" angle="90.00" type="EBUS2" speed="0.64" pos="188.16" lane="e1to2_0" slope="0.00"/>
        <vehicle id="o1" x="-17.33" y="-1.60" angle="90.00" type="EBUS" speed="0.68" pos="182.67" lane="e1to2_0" slope="0.00"/>
    </timestep>
    <timestep time="0.60">
        <vehicle id="d1" x="-1.00" y="-1.60" angle="90.00" type="EBUS2" speed="0.00" pos="199.00" lane="e1to2_0" slope="0.00"/>
        <vehicle id="d2" x="-6.26" y="-1.60" angle="90.00" type="EBUS2" speed="0.80" pos="193.74" lane="e1to2_0" slope="0.00"/>
        <vehicle id="d3" x="-11.76" y="-1.60" angle="90.00" type="EBUS2" speed="0.80" pos="188.24" lane="e1to2_0" slope="0.00"/>
        <vehicle id="o1" x="-17.24" y="-1.60" angle="90.00" type="EBUS" speed="0.86" pos="182.76" lane="e1to2_0" slope="0.00"/>
    </timestep>
    <timestep time="0.70">
        <vehicle id="d1" x="-1.00" y="-1.60" angle="90.00" type="EBUS2" speed="0.00" pos="199.00" lane="e1to2_0" slope="0.00"/>
        <vehicle id="d2" x="-6.16" y="-1.60" angle="90.00" type="EBUS2" speed="0.96" pos="193.84" lane="e1to2_0" slope="0.00"/>
        <vehicle id="d3" x="-11.66" y="-1.60" angle="90.00" type="EBUS2" speed="0.96" pos="188.34" lane="e1to2_0" slope="0.00"/>
        <vehicle id="o1" x="-17.14" y="-1.60" angle="90.00" type="EBUS" speed="1.03" pos="182.86" lane="e1to2_0" slope="0.00"/>
    </timestep>
    <timestep time="0.80">
        <vehicle id="d1" x="-1.00" y="-1.60" angle="90.00" type="EBUS2" speed="0.00" pos="199.00" lane="e1to2_0" slope="0.00"/>
        <vehicle id="d2" x="-6.05" y="-1.60" angle="90.00" type="EBUS2" speed="1.12" pos="193.95" lane="e1to2_0" slope="0.00"/>
        <vehicle id="d3" x="-11.55" y="-1.60" angle="90.00" type="EBUS2" speed="1.12" pos="188.45" lane="e1to2_0" slope="0.00"/>
        <vehicle id="o1" x="-17.02" y="-1.60" angle="90.00" type="EBUS" speed="1.20" pos="182.98" lane="e1to2_0" slope="0.00"/>
    </timestep>
    <timestep time="0.90">
        <vehicle id="d1" x="-1.00" y="-1.60" angle="90.00" type="EBUS2" speed="0.00" pos="199.00" lane="e1to2_0" slope="0.00"/>
        <vehicle id="d2" x="-5.92" y="-1.60" angle="90.00" type="EBUS2" speed="1.29" pos="194.08" lane="e1to2_0" slope="0.00"/>
        <vehicle id="d3" x="-11.42" y="-1.60" angle="90.00" type="EBUS2" speed="1.29" pos="188.58" lane="e1to2_0" slope="0.00"/>
        <vehicle id="o1" x="-16.88" y="-1.60" angle="90.00" type="EBUS" speed="1.37" pos="183.12" lane="e1to2_0" slope="0.00"/>
    </timestep>
    <timestep time="1.00">
        <vehicle id="d1" x="-1.00" y="-1.60" angle="90.00" type="EBUS2" speed="0.00" pos="199.00" lane="e1to2_0" slope="0.00"/>
        <vehicle id="d2" x="-5.78" y="-1.60" angle="90.00" type="EBUS2" speed="1.45" pos="194.22" lane="e1to2_0" slope="0.00"/>
        <vehicle id="d3" x="-11.28" y="-1.60" angle="90.00" type="EBUS2" speed="1.45" pos="188.72" lane="e1to2_0" slope="0.00"/>
        <vehicle id="o1" x="-16.73" y="-1.60" angle="90.00" type="EBUS" speed="1.54" pos="183.27" lane="e1to2_0" slope="0.00"/>
    </timestep>
    <timestep time="1.10">
        <vehicle id="d1" x="-1.00" y="-1.60" angle="90.00" type="EBUS2" speed="0.00" pos="199.00" lane="e1to2_0" slope="0.00"/>
        <vehicle id="d2" x="-5.62" y="-1.60" angle="90.00" type="EBUS2" speed="1.61" pos="194.38" lane="e1to2_0" slope="0.00"/>
        <vehicle id="d3" x="-11.12" y="-1.60" angle="90.00" type="EBUS2" speed="1.61" pos="188.88" lane="e1to2_0" slope="0.00"/>
        <vehicle id="o1" x="-16.56" y="-1.60" angle="90.00" type="EBUS" speed="1.71" pos="183.44" lane="e1to2_0" slope="0.00"/>
    </timestep>
    <timestep time="1.20">
        <vehicle id="d1" x="-1.00" y="-1.60" angle="90.00" type="EBUS2" speed="0.00" pos="199.00" lane="e1to2_0" slope="0.00"/>
        <vehicle id="d2" x="-5.44" y="-1.60" angle="90.00" type="EBUS2" speed="1.77" pos="194.56" lane="e1to2_0" slope="0.00"/>
        <vehicle id="d3" x="-10.94" y="-1.60" angle="90.00" type="EBUS2" speed="1.77" pos="189.06" lane="e1to2_0" slope="0.00"/>
        <vehicle id="o1" x="-16.37" y="-1.60" angle="90.00" type="EBUS" speed="1.88" pos="183.63" lane="e1to2_0" slope="0.00"/>
    </timestep>
    <timestep time="1.30">
        <vehicle id="d1" x="-1.00" y="-1.60" angle="90.00" type="EBUS2" speed="0.00" pos="199.00" lane="e1to2_0" slope="0.00"/>
        <vehicle id="d2" x="-5.25" y="-1.60" angle="90.00" type="EBUS2" speed="1.93" pos="194.75" lane="e1to2_0" slope="0.00"/>
        <vehicle id="d3" x="-10.75" y="-1.60" angle="90.00" type="EBUS2" speed="1.93" pos="189.25" lane="e1to2_0" slope="0.00"/>
        <vehicle id="o1" x="-16.16" y="-1.60" angle="90.00" type="EBUS" speed="2.05" pos="183.84" lane="e1to2_0" slope="0.00"/>
    </timestep>
    <timestep time="1.40">
        <vehicle id="d1" x="-1.00" y="-1.60" angle="90.00" type="EBUS2" speed="0.00" pos="199.00" lane="e1to2_0" slope="0.00"/>
        <vehicle id="d2" x="-5.04" y="-1.60" angle="90.00" type="EBUS2" speed="2.09" pos="194.96" lane="e1to2_0" slope="0.00"/>
        <vehicle id="d3" x="-10.54" y="-1.60" angle="90.00" type="EBUS2" speed="2.09" pos="189.46" lane="e1to2_0" slope="0.00"/>
        <vehicle id="o1" x="-15.94" y="-1.60" angle="90.00" type="EBUS" speed="2.23" pos="184.06" lane="e1to2_0" slope="0.00"/>
    </timestep>
    <timestep time="1.50">
        <vehicle id="d1" x="-1.00" y="-1.60" angle="90.00" type="EBUS2" speed="0.00" pos="199.00" lane="e1to2_0" slope="0.00"/>
        <vehicle id="d2" x="-4.81" y="-1.60" angle="90.00" type="EBUS2" speed="2.25" pos="195.19" lane="e1to2_0" slope="0.00"/>
        <vehicle id="d3" x="-10.31" y="-1.60" angle="90.00" type="EBUS2" speed="2.25" pos="189.69" lane="e1to2_0" slope="0.00"/>
        <vehicle id="o1" x="-15.70" y="-1.60" angle="90.00" type="EBUS" speed="2.40" pos="184.30" lane="e1to2_0" slope="0.00"/>
    </timestep>
    <timestep time="1.60">
        <vehicle id="d1" x="-1.00" y="-1.60" angle="90.00" type="EBUS2" speed="0.00" pos="199.00" lane="e1to2_0" slope="0.00"/>
        <vehicle id="d2" x="-4.57" y="-1.60" angle="90.00" type="EBUS2" speed="2.41" pos="195.43" lane="e1to2_0" slope="0.00"/>
        <vehicle id="d3" x="-10.07" y="-1.60" angle="90.00" type="EBUS2" speed="2.41" pos="189.93" lane="e1to2_0" slope="0.00"/>
        <vehicle id="o1" x="-15.45" y="-1.60" angle="90.00" type="EBUS" speed="2.57" pos="184.55" lane="e1to2_0" slope="0.00"/>
    </timestep>
    <timestep time="1.70">
        <vehicle id="d1" x="-1.00" y="-1.60" angle="90.00" type="EBUS2" speed="0.00" pos="199.00" lane="e1to2_0" slope="0.00"/>
        <vehicle id="d2" x="-4.35" y="-1.60" angle="90.00" type="EBUS2" speed="2.26" pos="195.65" lane="e1to2_0" slope="0.00"/>
        <vehicle id="d3" x="-9.81" y="-1.60" angle="90.00" type="EBUS2" speed="2.57" pos="190.19" lane="e1to2_0" slope="0.00"/>
        <vehicle id="o1" x="-15.17" y="-1.60" angle="90.00" type="EBUS" speed="2.74" pos="184.83" lane="e1to2_0" slope="0.00"/>
    </timestep>
    <timestep time="1.80">
        <vehicle id="d1" x="-1.00" y="-1.60" angle="90.00" type="EBUS2" speed="0.00" pos="199.00" lane="e1to2_0" slope="0.00"/>
        <vehicle id="d2" x="-4.21" y="-1.60" angle="90.00" type="EBUS2" speed="1.37" pos="195.79" lane="e1to2_0" slope="0.00"/>
        <vehicle id="d3" x="-9.54" y="-1.60" angle="90.00" type="EBUS2" speed="2.73" pos="190.46" lane="e1to2_0" slope="0.00"/>
        <vehicle id="o1" x="-14.88" y="-1.60" angle="90.00" type="EBUS" speed="2.91" pos="185.12" lane="e1to2_0" slope="0.00"/>
    </timestep>
    <timestep time="1.90">
        <vehicle id="d1" x="-1.00" y="-1.60" angle="90.00" type="EBUS2" speed="0.00" pos="199.00" lane="e1to2_0" slope="0.00"/>
        <vehicle id="d2" x="-4.16" y="-1.60" angle="90.00" type="EBUS2" speed="0.49" pos="195.84" lane="e1to2_0" slope="0.00"/>
        <vehicle id="d3" x="-9.25" y="-1.60" angle="90.00" type="EBUS2" speed="2.89" pos="190.75" lane="e1to2_0" slope="0.00"/>
        <vehicle id="o1" x="-14.57" y="-1.60" angle="90.00" type="EBUS" speed="3.08" pos="185.43" lane="e1to2_0" slope="0.00"/>
    </timestep>
    <timestep time="2.00">
        <vehicle id="d1" x="-1.00" y="-1.60" angle="90.00" type="EBUS2" speed="0.00" pos="199.00" lane="e1to2_0" slope="0.00"/>
        <vehicle id="d2" x="-4.16" y="-1.60" angle="90.00" type="EBUS2" speed="0.01" pos="195.84" lane="e1to2_0" slope="0.00"/>
        <vehicle id="d3" x="-8.95" y="-1.60" angle="90.00" type="EBUS2" speed="3.05" pos="191.05" lane="e1to2_0" slope="0.00"/>
        <vehicle id="o1" x="-14.25" y="-1.60" angle="90.00" type="EBUS" speed="3.25" pos="185.75" lane="e1to2_0" slope="0.00"/>
    </timestep>
    <timestep time="2.10">
        <vehicle id="d1" x="-1.00" y="-1.60" angle="90.00" type="EBUS2" speed="0.00" pos="199.00" lane="e1to2_0" slope="0.00"/>
        <vehicle id="d2" x="-4.16" y="-1.60" angle="90.00" type="EBUS2" speed="0.00" pos="195.84" lane="e1to2_0" slope="0.00"/>
        <vehicle id="d3" x="-8.63" y="-1.60" angle="90.00" type="EBUS2" speed="3.21" pos="191.37" lane="e1to2_0" slope="0.00"/>
        <vehicle id="o1" x="-13.91" y="-1.60" angle="90.00" type="EBUS" speed="3.42" pos="186.09" lane="e1to2_0" slope="0.00"/>
    </timestep>
    <timestep time="2.20">
        <vehicle id="d1" x="-1.00" y="-1.60" angle="90.00" type="EBUS2" speed="0.00" pos="199.00" lane="e1to2_0" slope="0.00"/>
        <vehicle id="d2" x="-4.16" y="-1.60" angle="90.00" type="EBUS2" speed="0.00" pos="195.84" lane="e1to2_0" slope="0.00"/>
        <vehicle id="d3" x="-8.29" y="-1.60" angle="90.00" type="EBUS2" speed="3.37" pos="191.71" lane="e1to2_0" slope="0.00"/>
        <vehicle id="o1" x="-13.55" y="-1.60" angle="90.00" type="EBUS" speed="3.59" pos="186.45" lane="e1to2_0" slope="0.00"/>
    </timestep>
    <timestep time="2.30">
        <vehicle id="d1" x="-1.00" y="-1.60" angle="90.00" type="EBUS2" speed="0.00" pos="199.00" lane="e1to2_0" slope="0.00"/>
        <vehicle id="d2" x="-4.16" y="-1.60" angle="90.00" type="EBUS2" speed="0.00" pos="195.84" lane="e1to2_0" slope="0.00"/>
        <vehicle id="d3" x="-7.93" y="-1.60" angle="90.00" type="EBUS2" speed="3.54" pos="192.07" lane="e1to2_0" slope="0.00"/>
        <vehicle id="o1" x="-13.17" y="-1.60" angle="90.00" type="EBUS" speed="3.77" pos="186.83" lane="e1to2_0" slope="0.00"/>
    </timestep>
    <timestep time="2.40">
        <vehicle id="d1" x="-1.00" y="-1.60" angle="90.00" type="EBUS2" speed="0.00" pos="199.00" lane="e1to2_0" slope="0.00"/>
        <vehicle id="d2" x="-4.16" y="-1.60" angle="90.00" type="EBUS2" speed="0.00" pos="195.84" lane="e1to2_0" slope="0.00"/>
        <vehicle id="d3" x="-7.65" y="-1.60" angle="90.00" type="EBUS2" speed="2.88" pos="192.35" lane="e1to2_0" slope="0.00"/>
        <vehicle id="o1" x="-12.78" y="-1.60" angle="90.00" type="EBUS" speed="3.94" pos="187.22" lane="e1to2_0" slope="0.00"/>
    </timestep>
    <timestep time="2.50">
        <vehicle id="d1" x="-1.00" y="-1.60" angle="90.00" type="EBUS2" speed="0.00" pos="199.00" lane="e1to2_0" slope="0.00"/>
        <vehicle id="d2" x="-4.16" y="-1.60" angle="90.00" type="EBUS2" speed="0.00" pos="195.84" lane="e1to2_0" slope="0.00"/>
        <vehicle id="d3" x="-7.45" y="-1.60" angle="90.00" type="EBUS2" speed="1.99" pos="192.55" lane="e1to2_0" slope="0.00"/>
        <vehicle id="o1" x="-12.37" y="-1.60" angle="90.00" type="EBUS" speed="4.11" pos="187.63" lane="e1to2_0" slope="0.00"/>
    </timestep>
    <timestep time="2.60">
        <vehicle id="d1" x="-1.00" y="-1.60" angle="90.00" type="EBUS2" speed="0.00" pos="199.00" lane="e1to2_0" slope="0.00"/>
        <vehicle id="d2" x="-4.16" y="-1.60" angle="90.00" type="EBUS2" speed="0.00" pos="195.84" lane="e1to2_0" slope="0.00"/>
        <vehicle id="d3" x="-7.34" y="-1.60" angle="90.00" type="EBUS2" speed="1.10" pos="192.66" lane="e1to2_0" slope="0.00"/>
        <vehicle id="o1" x="-11.96" y="-1.60" angle="90.00" type="EBUS" speed="4.06" pos="188.04" lane="e1to2_0" slope="0.00"/>
    </timestep>
    <timestep time="2.70">
        <vehicle id="d1" x="-1.00" y="-1.60" angle="90.00" type="EBUS2" speed="0.00" pos="199.00" lane="e1to2_0" slope="0.00"/>
        <vehicle id="d2" x="-4.16" y="-1.60" angle="90.00" type="EBUS2" speed="0.00" pos="195.84" lane="e1to2_0" slope="0.00"/>
        <vehicle id="d3" x="-7.32" y="-1.60" angle="90.00" type="EBUS2" speed="0.22" pos="192.68" lane="e1to2_0" slope="0.00"/>
        <vehicle id="o1" x="-11.62" y="-1.60" angle="90.00" type="EBUS" speed="3.42" pos="188.38" lane="e1to2_0" slope="0.00"/>
    </timestep>
    <timestep time="2.80">
        <vehicle id="d1" x="-1.00" y="-1.60" angle="90.00" type="EBUS2" speed="0.00" pos="199.00" lane="e1to2_0" slope="0.00"/>
        <vehicle id="d2" x="-4.16" y="-1.60" angle="90.00" type="EBUS2" speed="0.00" pos="195.84" lane="e1to2_0" slope="0.00"/>
        <vehicle id="d3" x="-7.32" y="-1.60" angle="90.00" type="EBUS2" speed="0.01" pos="192.68" lane="e1to2_0" slope="0.00"/>
        <vehicle id="o1" x="-11.34" y="-1.60" angle="90.00" type="EBUS" speed="2.82" pos="188.66" lane="e1to2_0" slope="0.00"/>
    </timestep>
    <timestep time="2.90">
        <vehicle id="d1" x="-1.00" y="-1.60" angle="90.00" type="EBUS2" speed="0.00" pos="199.00" lane="e1to2_0" slope="0.00"/>
        <vehicle id="d2" x="-4.16" y="-1.60" angle="90.00" type="EBUS2" speed="0.00" pos="195.84" lane="e1to2_0" slope="0.00"/>
        <vehicle id="d3" x="-7.32" y="-1.60" angle="90.00" type="EBUS2" speed="0.00" pos="192.68" lane="e1to2_0" slope="0.00"/>
        <vehicle id="o1" x="-11.11" y="-1.60" angle="90.00" type="EBUS" speed="2.24" pos="188.89" lane="e1to2_0" slope="0.00"/>
    </timestep>
    <timestep time="3.00">
        <vehicle id="d1" x="-1.00" y="-1.60" angle="90.00" type="EBUS2" speed="0.00" pos="199.00" lane="e1to2_0" slope="0.00"/>
        <vehicle id="d2" x="-4.16" y="-1.60" angle="90.00" type="EBUS2" speed="0.00" pos="195.84" lane="e1to2_0" slope="0.00"/>
        <vehicle id="d3" x="-7.32" y="-1.60" angle="90.00" type="EBUS2" speed="0.00" pos="192.68" lane="e1to2_0" slope="0.00"/>
        <vehicle id="o1" x="-10.94" y="-1.60" angle="90.00" type="EBUS" speed="1.74" pos="189.06" lane="e1to2_0" slope="0.00"/>
    </timestep>
    <timestep time="3.10">
        <vehicle id="d1" x="-1.00" y="-1.60" angle="90.00" type="EBUS2" speed="0.00" pos="199.00" lane="e1to2_0" slope="0.00"/>
        <vehicle id="d2" x="-4.16" y="-1.60" angle="90.00" type="EBUS2" speed="0.00" pos="195.84" lane="e1to2_0" slope="0.00"/>
        <vehicle id="d3" x="-7.32" y="-1.60" angle="90.00" type="EBUS2" speed="0.00" pos="192.68" lane="e1to2_0" slope="0.00"/>
        <vehicle id="o1" x="-10.81" y="-1.60" angle="90.00" type="EBUS" speed="1.26" pos="189.19" lane="e1to2_0" slope="0.00"/>
    </timestep>
    <timestep time="3.20">
        <vehicle id="d1" x="-1.00" y="-1.60" angle="90.00" type="EBUS2" speed="0.00" pos="199.00" lane="e1to2_0" slope="0.00"/>
        <vehicle id="d2" x="-4.16" y="-1.60" angle="90.00" type="EBUS2" speed="0.00" pos="195.84" lane="e1to2_0" slope="0.00"/>
        <vehicle id="d3" x="-7.32" y="-1.60" angle="90.00" type="EBUS2" speed="0.00" pos="192.68" lane="e1to2_0" slope="0.00"/>
        <vehicle id="o1" x="-10.72" y="-1.60" angle="90.00" type="EBUS" speed="0.91" pos="189.28" lane="e1to2_0" slope="0.00"/>
    </timestep>
    <timestep time="3.30">
        <vehicle id="d1" x="-1.00" y="-1.60" angle="90.00" type="EBUS2" speed="0.00" pos="199.00" lane="e1to2_0" slope="0.00"/>
        <vehicle id="d2" x="-4.16" y="-1.60" angle="90.00" type="EBUS2" speed="0.00" pos="195.84" lane="e1to2_0" slope="0.00"/>
        <vehicle id="d3" x="-7.32" y="-1.60" angle="90.00" type="EBUS2" speed="0.00" pos="192.68" lane="e1to2_0" slope="0.00"/>
        <vehicle id="o1" x="-10.66" y="-1.60" angle="90.00" type="EBUS" speed="0.57" pos="189.34" lane="e1to2_0" slope="0.00"/>
    </timestep>
    <timestep time="3.40">
        <vehicle id="d1" x="-1.00" y="-1.60" angle="90.00" type="EBUS2" speed="0.00" pos="199.00" lane="e1to2_0" slope="0.00"/>
        <vehicle id="d2" x="-4.16" y="-1.60" angle="90.00" type="EBUS2" speed="0.00" pos="195.84" lane="e1to2_0" slope="0.00"/>
        <vehicle id="d3" x="-7.32" y="-1.60" angle="90.00" type="EBUS2" speed="0.00" pos="192.68" lane="e1to2_0" slope="0.00"/>
        <vehicle id="o1" x="-10.63" y="-1.60" angle="90.00" type="EBUS" speed="0.35" pos="189.37" lane="e1to2_0" slope="0.00"/>
    </timestep>
    <timestep time="3.50">
        <vehicle id="d1" x="-1.00" y="-1.60" angle="90.00" type="EBUS2" speed="0.00" pos="199.00" lane="e1to2_0" slope="0.00"/>
        <vehicle id="d2" x="-4.16" y="-1.60" angle="90.00" type="EBUS2" speed="0.00" pos="195.84" lane="e1to2_0" slope="0.00"/>
        <vehicle id="d3" x="-7.32" y="-1.60" angle="90.00" type="EBUS2" speed="0.00" pos="192.68" lane="e1to2_0" slope="0.00"/>
        <vehicle id="o1" x="-10.61" y="-1.60" angle="90.00" type="EBUS" speed="0.22" pos="189.39" lane="e1to2_0" slope="0.00"/>
    </timestep>
    <timestep time="3.60">
        <vehicle id="d1" x="-1.00" y="-1.60" angle="90.00" type="EBUS2" speed="0.00" pos="199.00" lane="e1to2_0" slope="0.00"/>
        <vehicle id="d2" x="-4.16" y="-1.60" angle="90.00" type="EBUS2" speed="0.00" pos="195.84" lane="e1to2_0" slope="0.00"/>
        <vehicle id="d3" x="-7.32" y="-1.60" angle="90.00" type="EBUS2" speed="0.00" pos="192.68" lane="e1to2_0" slope="0.00"/>
        <vehicle id="o1" x="-10.59" y="-1.60" angle="90.00" type="EBUS" speed="0.14" pos="189.41" lane="e1to2_0" slope="0.00"/>
    </timestep>
    <timestep time="3.70">
        <vehicle id="d1" x="-1.00" y="-1.60" angle="90.00" type="EBUS2" speed="0.00" pos="199.00" lane="e1to2_0" slope="0.00"/>
        <vehicle id="d2" x="-4.16" y="-1.60" angle="90.00" type="EBUS2" speed="0.00" pos="195.84" lane="e1to2_0" slope="0.00"/>
        <vehicle id="d3" x="-7.32" y="-1.60" angle="90.00" type="EBUS2" speed="0.00" pos="192.68" lane="e1to2_0" slope="0.00"/>
        <vehicle id="o1" x="-10.58" y="-1.60" angle="90.00" type="EBUS" speed="0.08" pos="189.42" lane="e1to2_0" slope="0.00"/>
    </timestep>
    <timestep time="3.80">
        <vehicle id="d1" x="-1.00" y="-1.60" angle="90.00" type="EBUS2" speed="0.00" pos="199.00" lane="e1to2_0" slope="0.00"/>
        <vehicle id="d2" x="-4.16" y="-1.60" angle="90.00" type="EBUS2" speed="0.00" pos="195.84" lane="e1to2_0" slope="0.00"/>
        <vehicle id="d3" x="-7.32" y="-1.60" angle="90.00" type="EBUS2" speed="0.00" pos="192.68" lane="e1to2_0" slope="0.00"/>
        <vehicle id="o1" x="-10.58" y="-1.60" angle="90.00" type="EBUS" speed="0.05" pos="189.42" lane="e1to2_0" slope="0.00"/>
    </timestep>
    <timestep time="3.90">
        <vehicle id="d1" x="-1.00" y="-1.60" angle="90.00" type="EBUS2" speed="0.00" pos="199.00" lane="e1to2_0" slope="0.00"/>
        <vehicle id="d2" x="-4.16" y="-1.60" angle="90.00" type="EBUS2" speed="0.00" pos="195.84" lane="e1to2_0" slope="0.00"/>
        <vehicle id="d3" x="-7.32" y="-1.60" angle="90.00" type="EBUS2" speed="0.00" pos="192.68" lane="e1to2_0" slope="0.00"/>
        <vehicle id="o1" x="-10.58" y="-1.60" angle="90.00" type="EBUS" speed="0.03" pos="189.42" lane="e1to2_0" slope="0.00"/>
    </timestep>
    <timestep time="4.00">
        <vehicle id="d1" x="-1.00" y="-1.60" angle="90.00" type="EBUS2" speed="0.00" pos="199.00" lane="e1to2_0" slope="0.00"/>
        <vehicle id="d2" x="-4.16" y="-1.60" angle="90.00" type="EBUS2" speed="0.00" pos="195.84" lane="e1to2_0" slope="0.00"/>
        <vehicle id="d3" x="-7.32" y="-1.60" angle="90.00" type="EBUS2" speed="0.00" pos="192.68" lane="e1to2_0" slope="0.00"/>
        <vehicle id="o1" x="-10.57" y="-1.60" angle="90.00" type="EBUS" speed="0.02" pos="189.43" lane="e1to2_0" slope="0.00"/>
    </timestep>
    <timestep time="4.10">
        <vehicle id="d1" x="-1.00" y="-1.60" angle="90.00" type="EBUS2" speed="0.00" pos="199.00" lane="e1to2_0" slope="0.00"/>
        <vehicle id="d2" x="-4.16" y="-1.60" angle="90.00" type="EBUS2" speed="0.00" pos="195.84" lane="e1to2_0" slope="0.00"/>
        <vehicle id="d3" x="-7.32" y="-1.60" angle="90.00" type="EBUS2" speed="0.00" pos="192.68" lane="e1to2_0" slope="0.00"/>
        <vehicle id="o1" x="-10.57" y="-1.60" angle="90.00" type="EBUS" speed="0.01" pos="189.43" lane="e1to2_0" slope="0.00"/>
    </timestep>
    <timestep time="4.20">
        <vehicle id="d1" x="-1.00" y="-1.60" angle="90.00" type="EBUS2" speed="0.00" pos="199.00" lane="e1to2_0" slope="0.00"/>
        <vehicle id="d2" x="-4.16" y="-1.60" angle="90.00" type="EBUS2" speed="0.00" pos="195.84" lane="e1to2_0" slope="0.00"/>
        <vehicle id="d3" x="-7.32" y="-1.60" angle="90.00" type="EBUS2" speed="0.00" pos="192.68" lane="e1to2_0" slope="0.00"/>
        <vehicle id="o1" x="-10.57" y="-1.60" angle="90.00" type="EBUS" speed="0.01" pos="189.43" lane="e1to2_0" slope="0.00"/>
    </timestep>
    <timestep time="4.30">
        <vehicle id="d1" x="-1.00" y="-1.60" angle="90.00" type="EBUS2" speed="0.00" pos="199.00" lane="e1to2_0" slope="0.00"/>
        <vehicle id="d2" x="-4.16" y="-1.60" angle="90.00" type="EBUS2" speed="0.00" pos="195.84" lane="e1to2_0" slope="0.00"/>
        <vehicle id="d3" x="-7.32" y="-1.60" angle="90.00" type="EBUS2" speed="0.00" pos="192.68" lane="e1to2_0" slope="0.00"/>
        <vehicle id="o1" x="-10.57" y="-1.60" angle="90.00" type="EBUS" speed="0.00" pos="189.43" lane="e1to2_0" slope="0.00"/>
    </timestep>
    <timestep time="4.40">
        <vehicle id="d1" x="-1.00" y="-1.60" angle="90.00" type="EBUS2" speed="0.00" pos="199.00" lane="e1to2_0" slope="0.00"/>
        <vehicle id="d2" x="-4.16" y="-1.60" angle="90.00" type="EBUS2" speed="0.00" pos="195.84" lane="e1to2_0" slope="0.00"/>
        <vehicle id="d3" x="-7.32" y="-1.60" angle="90.00" type="EBUS2" speed="0.00" pos="192.68" lane="e1to2_0" slope="0.00"/>
        <vehicle id="o1" x="-10.57" y="-1.60" angle="90.00" type="EBUS" speed="0.00" pos="189.43" lane="e1to2_0" slope="0.00"/>
    </timestep>
    <timestep time="4.50">
        <vehicle id="d1" x="-1.00" y="-1.60" angle="90.00" type="EBUS2" speed="0.00" pos="199.00" lane="e1to2_0" slope="0.00"/>
        <vehicle id="d2" x="-4.16" y="-1.60" angle="90.00" type="EBUS2" speed="0.00" pos="195.84" lane="e1to2_0" slope="0.00"/>
        <vehicle id="d3" x="-7.32" y="-1.60" angle="90.00" type="EBUS2" speed="0.00" pos="192.68" lane="e1to2_0" slope="0.00"/>
        <vehicle id="o1" x="-10.57" y="-1.60" angle="90.00" type="EBUS" speed="0.00" pos="189.43" lane="e1to2_0" slope="0.00"/>
    </timestep>
    <timestep time="4.60">
        <vehicle id="d1" x="-1.00" y="-1.60" angle="90.00" type="EBUS2" speed="0.00" pos="199.00" lane="e1to2_0" slope="0.00"/>
        <vehicle id="d2" x="-4.16" y="-1.60" angle="90.00" type="EBUS2" speed="0.00" pos="195.84" lane="e1to2_0" slope="0.00"/>
        <vehicle id="d3" x="-7.32" y="-1.60" angle="90.00" type="EBUS2" speed="0.00" pos="192.68" lane="e1to2_0" slope="0.00"/>
        <vehicle id="o1" x="-10.57" y="-1.60" angle="90.00" type="EBUS" speed="0.00" pos="189.43" lane="e1to2_0" slope="0.00"/>
    </timestep>
    <timestep time="4.70">
        <vehicle id="d1" x="-1.00" y="-1.60" angle="90.00" type="EBUS2" speed="0.00" pos="199.00" lane="e1to2_0" slope="0.00"/>
        <vehicle id="d2" x="-4.16" y="-1.60" angle="90.00" type="EBUS2" speed="0.00" pos="195.84" lane="e1to2_0" slope="0.00"/>
        <vehicle id="d3" x="-7.32" y="-1.60" angle="90.00" type="EBUS2" speed="0.00" pos="192.68" lane="e1to2_0" slope="0.00"/>
        <vehicle id="o1" x="-10.57" y="-1.60" angle="90.00" type="EBUS" speed="0.00" pos="189.43" lane="e1to2_0" slope="0.00"/>
    </timestep>
    <timestep time="4.80">
        <vehicle id="d1" x="-1.00" y="-1.60" angle="90.00" type="EBUS2" speed="0.00" pos="199.00" lane="e1to2_0" slope="0.00"/>
        <vehicle id="d2" x="-4.16" y="-1.60" angle="90.00" type="EBUS2" speed="0.00" pos="195.84" lane="e1to2_0" slope="0.00"/>
        <vehicle id="d3" x="-7.32" y="-1.60" angle="90.00" type="EBUS2" speed="0.00" pos="192.68" lane="e1to2_0" slope="0.00"/>
        <vehicle id="o1" x="-10.57" y="-1.60" angle="90.00" type="EBUS" speed="0.00" pos="189.43" lane="e1to2_0" slope="0.00"/>
    </timestep>
    <timestep time="4.90">
        <vehicle id="d1" x="-1.00" y="-1.60" angle="90.00" type="EBUS2" speed="0.00" pos="199.00" lane="e1to2_0" slope="0.00"/>
        <vehicle id="d2" x="-4.16" y="-1.60" angle="90.00" type="EBUS2" speed="0.00" pos="195.84" lane="e1to2_0" slope="0.00"/>
        <vehicle id="d3" x="-7.32" y="-1.60" angle="90.00" type="EBUS2" speed="0.00" pos="192.68" lane="e1to2_0" slope="0.00"/>
        <vehicle id="o1" x="-10.57" y="-1.60" angle="90.00" type="EBUS" speed="0.00" pos="189.43" lane="e1to2_0" slope="0.00"/>
    </timestep>
    <timestep time="5.00">
        <vehicle id="d1" x="-1.00" y="-1.60" angle="90.00" type="EBUS2" speed="0.00" pos="199.00" lane="e1to2_0" slope="0.00"/>
        <vehicle id="d2" x="-4.16" y="-1.60" angle="90.00" type="EBUS2" speed="0.00" pos="195.84" lane="e1to2_0" slope="0.00"/>
        <vehicle id="d3" x="-7.32" y="-1.60" angle="90.00" type="EBUS2" speed="0.00" pos="192.68" lane="e1to2_0" slope="0.00"/>
        <vehicle id="o1" x="-10.57" y="-1.60" angle="90.00" type="EBUS" speed="0.00" pos="189.43" lane="e1to2_0" slope="0.00"/>
    </timestep>
    <timestep time="5.10">
        <vehicle id="d1" x="-1.00" y="-1.60" angle="90.00" type="EBUS2" speed="0.00" pos="199.00" lane="e1to2_0" slope="0.00"/>
        <vehicle id="d2" x="-4.16" y="-1.60" angle="90.00" type="EBUS2" speed="0.00" pos="195.84" lane="e1to2_0" slope="0.00"/>
        <vehicle id="d3" x="-7.32" y="-1.60" angle="90.00" type="EBUS2" speed="0.00" pos="192.68" lane="e1to2_0" slope="0.00"/>
        <vehicle id="o1" x="-10.57" y="-1.60" angle="90.00" type="EBUS" speed="0.00" pos="189.43" lane="e1to2_0" slope="0.00"/>
    </timestep>
    <timestep time="5.20">
        <vehicle id="d1" x="-1.00" y="-1.60" angle="90.00" type="EBUS2" speed="0.00" pos="199.00" lane="e1to2_0" slope="0.00"/>
        <vehicle id="d2" x="-4.16" y="-1.60" angle="90.00" type="EBUS2" speed="0.00" pos="195.84" lane="e1to2_0" slope="0.00"/>
        <vehicle id="d3" x="-7.32" y="-1.60" angle="90.00" type="EBUS2" speed="0.00" pos="192.68" lane="e1to2_0" slope="0.00"/>
        <vehicle id="o1" x="-10.57" y="-1.60" angle="90.00" type="EBUS" speed="0.00" pos="189.43" lane="e1to2_0" slope="0.00"/>