<?xml version="1.0" encoding="UTF-8"?>

<!-- generated on 2023-01-28 16:20:24 by Eclipse SUMO libsumo Version v1_15_0+0841-ec7ac00463d
<configuration xmlns:xsi="http://www.w3.org/2001/XMLSchema-instance" xsi:noNamespaceSchemaLocation="http://sumo.dlr.de/xsd/libsumoConfiguration.xsd">

    <input>
        <net-file value="/home/liuli/SUMONBDT/sumoCfgs1/my1Lane1TLS.net.xml"/>
        <route-files value="/home/liuli/SUMONBDT/sumoCfgs1/m1Lane1Tls.rou.xml"/>
    </input>

    <output>
        <fcd-output value="/home/liuli/SUMONBDT/sumoCfgs1/fcd-output.xml"/>
        <full-output value="/home/liuli/SUMONBDT/sumoCfgs1/full-output.xml"/>
        <summary-output value="/home/liuli/SUMONBDT/sumoCfgs1/summary.xml"/>
    </output>

    <time>
        <begin value="0"/>
        <end value="50"/>
        <step-length value="0.1"/>
    </time>

    <processing>
        <ignore-route-errors value="true"/>
    </processing>

</configuration>
-->

<fcd-export xmlns:xsi="http://www.w3.org/2001/XMLSchema-instance" xsi:noNamespaceSchemaLocation="http://sumo.dlr.de/xsd/fcd_file.xsd">
    <timestep time="0.00"/>
    <timestep time="0.10">
        <vehicle id="o1" x="-16.58" y="-1.60" angle="90.00" type="EBUS" speed="6.05" pos="183.42" lane="e1to2_0" slope="0.00"/>
    </timestep>
    <timestep time="0.20">
        <vehicle id="o1" x="-15.98" y="-1.60" angle="90.00" type="EBUS" speed="6.05" pos="184.02" lane="e1to2_0" slope="0.00"/>
    </timestep>
    <timestep time="0.30">
        <vehicle id="o1" x="-15.37" y="-1.60" angle="90.00" type="EBUS" speed="6.05" pos="184.63" lane="e1to2_0" slope="0.00"/>
    </timestep>
    <timestep time="0.40">
        <vehicle id="o1" x="-14.77" y="-1.60" angle="90.00" type="EBUS" speed="6.05" pos="185.23" lane="e1to2_0" slope="0.00"/>
    </timestep>
    <timestep time="0.50">
        <vehicle id="o1" x="-14.16" y="-1.60" angle="90.00" type="EBUS" speed="6.05" pos="185.84" lane="e1to2_0" slope="0.00"/>
    </timestep>
    <timestep time="0.60">
        <vehicle id="o1" x="-13.56" y="-1.60" angle="90.00" type="EBUS" speed="6.05" pos="186.44" lane="e1to2_0" slope="0.00"/>
    </timestep>
    <timestep time="0.70">
        <vehicle id="o1" x="-12.95" y="-1.60" angle="90.00" type="EBUS" speed="6.05" pos="187.05" lane="e1to2_0" slope="0.00"/>
    </timestep>
    <timestep time="0.80">
        <vehicle id="o1" x="-12.35" y="-1.60" angle="90.00" type="EBUS" speed="6.05" pos="187.65" lane="e1to2_0" slope="0.00"/>
    </timestep>
    <timestep time="0.90">
        <vehicle id="o1" x="-11.74" y="-1.60" angle="90.00" type="EBUS" speed="6.05" pos="188.26" lane="e1to2_0" slope="0.00"/>
    </timestep>
    <timestep time="1.00">
        <vehicle id="o1" x="-11.14" y="-1.60" angle="90.00" type="EBUS" speed="6.05" pos="188.86" lane="e1to2_0" slope="0.00"/>
    </timestep>
    <timestep time="1.10">
        <vehicle id="o1" x="-10.53" y="-1.60" angle="90.00" type="EBUS" speed="6.05" pos="189.47" lane="e1to2_0" slope="0.00"/>
    </timestep>
    <timestep time="1.20">
        <vehicle id="o1" x="-9.93" y="-1.60" angle="90.00" type="EBUS" speed="6.05" pos="190.07" lane="e1to2_0" slope="0.00"/>
    </timestep>
    <timestep time="1.30">
        <vehicle id="o1" x="-9.32" y="-1.60" angle="90.00" type="EBUS" speed="6.05" pos="190.68" lane="e1to2_0" slope="0.00"/>
    </timestep>
    <timestep time="1.40">
        <vehicle id="o1" x="-8.72" y="-1.60" angle="90.00" type="EBUS" speed="6.05" pos="191.28" lane="e1to2_0" slope="0.00"/>
    </timestep>
    <timestep time="1.50">
        <vehicle id="o1" x="-8.11" y="-1.60" angle="90.00" type="EBUS" speed="6.05" pos="191.89" lane="e1to2_0" slope="0.00"/>
    </timestep>
    <timestep time="1.60">
        <vehicle id="o1" x="-7.51" y="-1.60" angle="90.00" type="EBUS" speed="6.05" pos="192.49" lane="e1to2_0" slope="0.00"/>
    </timestep>
    <timestep time="1.70">
        <vehicle id="o1" x="-6.90" y="-1.60" angle="90.00" type="EBUS" speed="6.05" pos="193.10" lane="e1to2_0" slope="0.00"/>
    </timestep>
    <timestep time="1.80">
        <vehicle id="o1" x="-6.30" y="-1.60" angle="90.00" type="EBUS" speed="6.05" pos="193.70" lane="e1to2_0" slope="0.00"/>
    </timestep>
    <timestep time="1.90">
        <vehicle id="o1" x="-5.69" y="-1.60" angle="90.00" type="EBUS" speed="6.05" pos="194.31" lane="e1to2_0" slope="0.00"/>
    </timestep>
    <timestep time="2.00">
        <vehicle id="o1" x="-5.09" y="-1.60" angle="90.00" type="EBUS" speed="6.05" pos="194.91" lane="e1to2_0" slope="0.00"/>
    </timestep>
    <timestep time="2.10">
        <vehicle id="o1" x="-4.49" y="-1.60" angle="90.00" type="EBUS" speed="6.05" pos="195.51" lane="e1to2_0" slope="0.00"/>
    </timestep>
    <timestep time="2.20">
        <vehicle id="o1" x="-3.88" y="-1.60" angle="90.00" type="EBUS" speed="6.05" pos="196.12" lane="e1to2_0" slope="0.00"/>
    </timestep>
    <timestep time="2.30">
        <vehicle id="o1" x="-3.28" y="-1.60" angle="90.00" type="EBUS" speed="6.05" pos="196.72" lane="e1to2_0" slope="0.00"/>
    </timestep>
    <timestep time="2.40">
        <vehicle id="o1" x="-2.67" y="-1.60" angle="90.00" type="EBUS" speed="6.05" pos="197.33" lane="e1to2_0" slope="0.00"/>
    </timestep>
    <timestep time="2.50">
        <vehicle id="o1" x="-2.07" y="-1.60" angle="90.00" type="EBUS" speed="6.05" pos="197.93" lane="e1to2_0" slope="0.00"/>
    </timestep>
    <timestep time="2.60">
        <vehicle id="o1" x="-1.46" y="-1.60" angle="90.00" type="EBUS" speed="6.05" pos="198.54" lane="e1to2_0" slope="0.00"/>
    </timestep>
    <timestep time="2.70">
        <vehicle id="o1" x="-0.86" y="-1.60" angle="90.00" type="EBUS" speed="6.05" pos="199.14" lane="e1to2_0" slope="0.00"/>
    </timestep>
    <timestep time="2.80">
        <vehicle id="o1" x="-0.25" y="-1.60" angle="90.00" type="EBUS" speed="6.05" pos="199.75" lane="e1to2_0" slope="0.00"/>
    </timestep>
</fcd-export>
