<?xml version="1.0" encoding="UTF-8"?>

<!-- generated on 2023-08-02 10:36:47 by Eclipse SUMO libsumo Version v1_15_0+0841-ec7ac00463d
<configuration xmlns:xsi="http://www.w3.org/2001/XMLSchema-instance" xsi:noNamespaceSchemaLocation="http://sumo.dlr.de/xsd/libsumoConfiguration.xsd">

    <input>
        <net-file value="/home/liuli/myCodes/SUMONBDT//sumoCfgs1/my1Lane1TLS.net.xml"/>
        <route-files value="/home/liuli/myCodes/SUMONBDT//sumoCfgs1/m1Lane1Tls.rou.xml"/>
    </input>

    <output>
        <fcd-output value="/home/liuli/myCodes/SUMONBDT//sumoCfgs1/fcd-output.xml"/>
        <full-output value="/home/liuli/myCodes/SUMONBDT//sumoCfgs1/full-output.xml"/>
        <summary-output value="/home/liuli/myCodes/SUMONBDT//sumoCfgs1/summary.xml"/>
    </output>

    <time>
        <begin value="0"/>
        <end value="50"/>
        <step-length value="0.1"/>
    </time>

    <report>
        <no-warnings value="true"/>
    </report>

</configuration>
-->

<fcd-export xmlns:xsi="http://www.w3.org/2001/XMLSchema-instance" xsi:noNamespaceSchemaLocation="http://sumo.dlr.de/xsd/fcd_file.xsd">
    <timestep time="0.00"/>
    <timestep time="0.10">
        <vehicle id="d1" x="-1.00" y="-1.60" angle="90.00" type="EBUS2" speed="0.00" pos="199.00" lane="e1to2_0" slope="0.00"/>
        <vehicle id="d2" x="-6.50" y="-1.60" angle="90.00" type="EBUS2" speed="0.00" pos="193.50" lane="e1to2_0" slope="0.00"/>
        <vehicle id="d3" x="-12.00" y="-1.60" angle="90.00" type="EBUS2" speed="0.00" pos="188.00" lane="e1to2_0" slope="0.00"/>
        <vehicle id="d4" x="-17.50" y="-1.60" angle="90.00" type="EBUS2" speed="0.00" pos="182.50" lane="e1to2_0" slope="0.00"/>
        <vehicle id="o1" x="-23.01" y="-1.60" angle="90.00" type="EBUS" speed="0.00" pos="176.99" lane="e1to2_0" slope="0.00"/>
    </timestep>
    <timestep time="0.20">
        <vehicle id="d1" x="-1.00" y="-1.60" angle="90.00" type="EBUS2" speed="0.00" pos="199.00" lane="e1to2_0" slope="0.00"/>
        <vehicle id="d2" x="-6.49" y="-1.60" angle="90.00" type="EBUS2" speed="0.12" pos="193.51" lane="e1to2_0" slope="0.00"/>
        <vehicle id="d3" x="-11.99" y="-1.60" angle="90.00" type="EBUS2" speed="0.12" pos="188.01" lane="e1to2_0" slope="0.00"/>
        <vehicle id="d4" x="-17.49" y="-1.60" angle="90.00" type="EBUS2" speed="0.12" pos="182.51" lane="e1to2_0" slope="0.00"/>
        <vehicle id="o1" x="-22.99" y="-1.60" angle="90.00" type="EBUS" speed="0.18" pos="177.01" lane="e1to2_0" slope="0.00"/>
    </timestep>
    <timestep time="0.30">
        <vehicle id="d1" x="-1.00" y="-1.60" angle="90.00" type="EBUS2" speed="0.00" pos="199.00" lane="e1to2_0" slope="0.00"/>
        <vehicle id="d2" x="-6.46" y="-1.60" angle="90.00" type="EBUS2" speed="0.25" pos="193.54" lane="e1to2_0" slope="0.00"/>
        <vehicle id="d3" x="-11.96" y="-1.60" angle="90.00" type="EBUS2" speed="0.25" pos="188.04" lane="e1to2_0" slope="0.00"/>
        <vehicle id="d4" x="-17.46" y="-1.60" angle="90.00" type="EBUS2" speed="0.25" pos="182.54" lane="e1to2_0" slope="0.00"/>
        <vehicle id="o1" x="-22.96" y="-1.60" angle="90.00" type="EBUS" speed="0.37" pos="177.04" lane="e1to2_0" slope="0.00"/>
    </timestep>
    <timestep time="0.40">
        <vehicle id="d1" x="-1.00" y="-1.60" angle="90.00" type="EBUS2" speed="0.00" pos="199.00" lane="e1to2_0" slope="0.00"/>
        <vehicle id="d2" x="-6.43" y="-1.60" angle="90.00" type="EBUS2" speed="0.37" pos="193.57" lane="e1to2_0" slope="0.00"/>
        <vehicle id="d3" x="-11.93" y="-1.60" angle="90.00" type="EBUS2" speed="0.37" pos="188.07" lane="e1to2_0" slope="0.00"/>
        <vehicle id="d4" x="-17.43" y="-1.60" angle="90.00" type="EBUS2" speed="0.37" pos="182.57" lane="e1to2_0" slope="0.00"/>
        <vehicle id="o1" x="-22.90" y="-1.60" angle="90.00" type="EBUS" speed="0.55" pos="177.10" lane="e1to2_0" slope="0.00"/>
    </timestep>
    <timestep time="0.50">
        <vehicle id="d1" x="-1.00" y="-1.60" angle="90.00" type="EBUS2" speed="0.00" pos="199.00" lane="e1to2_0" slope="0.00"/>
        <vehicle id="d2" x="-6.38" y="-1.60" angle="90.00" type="EBUS2" speed="0.49" pos="193.62" lane="e1to2_0" slope="0.00"/>
        <vehicle id="d3" x="-11.88" y="-1.60" angle="90.00" type="EBUS2" speed="0.49" pos="188.12" lane="e1to2_0" slope="0.00"/>
        <vehicle id="d4" x="-17.38" y="-1.60" angle="90.00" type="EBUS2" speed="0.49" pos="182.62" lane="e1to2_0" slope="0.00"/>
        <vehicle id="o1" x="-22.83" y="-1.60" angle="90.00" type="EBUS" speed="0.73" pos="177.17" lane="e1to2_0" slope="0.00"/>
    </timestep>
    <timestep time="0.60">
        <vehicle id="d1" x="-1.00" y="-1.60" angle="90.00" type="EBUS2" speed="0.00" pos="199.00" lane="e1to2_0" slope="0.00"/>
        <vehicle id="d2" x="-6.31" y="-1.60" angle="90.00" type="EBUS2" speed="0.62" pos="193.69" lane="e1to2_0" slope="0.00"/>
        <vehicle id="d3" x="-11.81" y="-1.60" angle="90.00" type="EBUS2" speed="0.62" pos="188.19" lane="e1to2_0" slope="0.00"/>
        <vehicle id="d4" x="-17.31" y="-1.60" angle="90.00" type="EBUS2" speed="0.62" pos="182.69" lane="e1to2_0" slope="0.00"/>
        <vehicle id="o1" x="-22.74" y="-1.60" angle="90.00" type="EBUS" speed="0.91" pos="177.26" lane="e1to2_0" slope="0.00"/>
    </timestep>
    <timestep time="0.70">
        <vehicle id="d1" x="-1.00" y="-1.60" angle="90.00" type="EBUS2" speed="0.00" pos="199.00" lane="e1to2_0" slope="0.00"/>
        <vehicle id="d2" x="-6.24" y="-1.60" angle="90.00" type="EBUS2" speed="0.74" pos="193.76" lane="e1to2_0" slope="0.00"/>
        <vehicle id="d3" x="-11.74" y="-1.60" angle="90.00" type="EBUS2" speed="0.74" pos="188.26" lane="e1to2_0" slope="0.00"/>
        <vehicle id="d4" x="-17.24" y="-1.60" angle="90.00" type="EBUS2" speed="0.74" pos="182.76" lane="e1to2_0" slope="0.00"/>
        <vehicle id="o1" x="-22.63" y="-1.60" angle="90.00" type="EBUS" speed="1.10" pos="177.37" lane="e1to2_0" slope="0.00"/>
    </timestep>
    <timestep time="0.80">
        <vehicle id="d1" x="-1.00" y="-1.60" angle="90.00" type="EBUS2" speed="0.00" pos="199.00" lane="e1to2_0" slope="0.00"/>
        <vehicle id="d2" x="-6.15" y="-1.60" angle="90.00" type="EBUS2" speed="0.86" pos="193.85" lane="e1to2_0" slope="0.00"/>
        <vehicle id="d3" x="-11.65" y="-1.60" angle="90.00" type="EBUS2" speed="0.86" pos="188.35" lane="e1to2_0" slope="0.00"/>
        <vehicle id="d4" x="-17.15" y="-1.60" angle="90.00" type="EBUS2" speed="0.86" pos="182.85" lane="e1to2_0" slope="0.00"/>
        <vehicle id="o1" x="-22.50" y="-1.60" angle="90.00" type="EBUS" speed="1.28" pos="177.50" lane="e1to2_0" slope="0.00"/>
    </timestep>
    <timestep time="0.90">
        <vehicle id="d1" x="-1.00" y="-1.60" angle="90.00" type="EBUS2" speed="0.00" pos="199.00" lane="e1to2_0" slope="0.00"/>
        <vehicle id="d2" x="-6.06" y="-1.60" angle="90.00" type="EBUS2" speed="0.99" pos="193.94" lane="e1to2_0" slope="0.00"/>
        <vehicle id="d3" x="-11.56" y="-1.60" angle="90.00" type="EBUS2" speed="0.99" pos="188.44" lane="e1to2_0" slope="0.00"/>
        <vehicle id="d4" x="-17.06" y="-1.60" angle="90.00" type="EBUS2" speed="0.99" pos="182.94" lane="e1to2_0" slope="0.00"/>
        <vehicle id="o1" x="-22.35" y="-1.60" angle="90.00" type="EBUS" speed="1.46" pos="177.65" lane="e1to2_0" slope="0.00"/>
    </timestep>
    <timestep time="1.00">
        <vehicle id="d1" x="-1.00" y="-1.60" angle="90.00" type="EBUS2" speed="0.00" pos="199.00" lane="e1to2_0" slope="0.00"/>
        <vehicle id="d2" x="-5.94" y="-1.60" angle="90.00" type="EBUS2" speed="1.11" pos="194.06" lane="e1to2_0" slope="0.00"/>
        <vehicle id="d3" x="-11.44" y="-1.60" angle="90.00" type="EBUS2" speed="1.11" pos="188.56" lane="e1to2_0" slope="0.00"/>
        <vehicle id="d4" x="-16.94" y="-1.60" angle="90.00" type="EBUS2" speed="1.11" pos="183.06" lane="e1to2_0" slope="0.00"/>
        <vehicle id="o1" x="-22.19" y="-1.60" angle="90.00" type="EBUS" speed="1.65" pos="177.81" lane="e1to2_0" slope="0.00"/>
    </timestep>
    <timestep time="1.10">
        <vehicle id="d1" x="-1.00" y="-1.60" angle="90.00" type="EBUS2" speed="0.00" pos="199.00" lane="e1to2_0" slope="0.00"/>
        <vehicle id="d2" x="-5.82" y="-1.60" angle="90.00" type="EBUS2" speed="1.23" pos="194.18" lane="e1to2_0" slope="0.00"/>
        <vehicle id="d3" x="-11.32" y="-1.60" angle="90.00" type="EBUS2" speed="1.23" pos="188.68" lane="e1to2_0" slope="0.00"/>
        <vehicle id="d4" x="-16.82" y="-1.60" angle="90.00" type="EBUS2" speed="1.23" pos="183.18" lane="e1to2_0" slope="0.00"/>
        <vehicle id="o1" x="-22.00" y="-1.60" angle="90.00" type="EBUS" speed="1.83" pos="178.00" lane="e1to2_0" slope="0.00"/>
    </timestep>
    <timestep time="1.20">
        <vehicle id="d1" x="-1.00" y="-1.60" angle="90.00" type="EBUS2" speed="0.00" pos="199.00" lane="e1to2_0" slope="0.00"/>
        <vehicle id="d2" x="-5.69" y="-1.60" angle="90.00" type="EBUS2" speed="1.36" pos="194.31" lane="e1to2_0" slope="0.00"/>
        <vehicle id="d3" x="-11.19" y="-1.60" angle="90.00" type="EBUS2" speed="1.36" pos="188.81" lane="e1to2_0" slope="0.00"/>
        <vehicle id="d4" x="-16.69" y="-1.60" angle="90.00" type="EBUS2" speed="1.36" pos="183.31" lane="e1to2_0" slope="0.00"/>
        <vehicle id="o1" x="-21.80" y="-1.60" angle="90.00" type="EBUS" speed="2.01" pos="178.20" lane="e1to2_0" slope="0.00"/>
    </timestep>
    <timestep time="1.30">
        <vehicle id="d1" x="-1.00" y="-1.60" angle="90.00" type="EBUS2" speed="0.00" pos="199.00" lane="e1to2_0" slope="0.00"/>
        <vehicle id="d2" x="-5.54" y="-1.60" angle="90.00" type="EBUS2" speed="1.48" pos="194.46" lane="e1to2_0" slope="0.00"/>
        <vehicle id="d3" x="-11.04" y="-1.60" angle="90.00" type="EBUS2" speed="1.48" pos="188.96" lane="e1to2_0" slope="0.00"/>
        <vehicle id="d4" x="-16.54" y="-1.60" angle="90.00" type="EBUS2" speed="1.48" pos="183.46" lane="e1to2_0" slope="0.00"/>
        <vehicle id="o1" x="-21.58" y="-1.60" angle="90.00" type="EBUS" speed="2.19" pos="178.42" lane="e1to2_0" slope="0.00"/>
    </timestep>
    <timestep time="1.40">
        <vehicle id="d1" x="-1.00" y="-1.60" angle="90.00" type="EBUS2" speed="0.00" pos="199.00" lane="e1to2_0" slope="0.00"/>
        <vehicle id="d2" x="-5.38" y="-1.60" angle="90.00" type="EBUS2" speed="1.60" pos="194.62" lane="e1to2_0" slope="0.00"/>
        <vehicle id="d3" x="-10.88" y="-1.60" angle="90.00" type="EBUS2" speed="1.60" pos="189.12" lane="e1to2_0" slope="0.00"/>
        <vehicle id="d4" x="-16.38" y="-1.60" angle="90.00" type="EBUS2" speed="1.60" pos="183.62" lane="e1to2_0" slope="0.00"/>
        <vehicle id="o1" x="-21.35" y="-1.60" angle="90.00" type="EBUS" speed="2.38" pos="178.65" lane="e1to2_0" slope="0.00"/>
    </timestep>
    <timestep time="1.50">
        <vehicle id="d1" x="-1.00" y="-1.60" angle="90.00" type="EBUS2" speed="0.00" pos="199.00" lane="e1to2_0" slope="0.00"/>
        <vehicle id="d2" x="-5.20" y="-1.60" angle="90.00" type="EBUS2" speed="1.73" pos="194.80" lane="e1to2_0" slope="0.00"/>
        <vehicle id="d3" x="-10.70" y="-1.60" angle="90.00" type="EBUS2" speed="1.73" pos="189.30" lane="e1to2_0" slope="0.00"/>
        <vehicle id="d4" x="-16.20" y="-1.60" angle="90.00" type="EBUS2" speed="1.73" pos="183.80" lane="e1to2_0" slope="0.00"/>
        <vehicle id="o1" x="-21.09" y="-1.60" angle="90.00" type="EBUS" speed="2.56" pos="178.91" lane="e1to2_0" slope="0.00"/>
    </timestep>
    <timestep time="1.60">
        <vehicle id="d1" x="-0.99" y="-1.60" angle="90.00" type="EBUS2" speed="0.12" pos="199.01" lane="e1to2_0" slope="0.00"/>
        <vehicle id="d2" x="-5.02" y="-1.60" angle="90.00" type="EBUS2" speed="1.85" pos="194.98" lane="e1to2_0" slope="0.00"/>
        <vehicle id="d3" x="-10.52" y="-1.60" angle="90.00" type="EBUS2" speed="1.85" pos="189.48" lane="e1to2_0" slope="0.00"/>
        <vehicle id="d4" x="-16.02" y="-1.60" angle="90.00" type="EBUS2" speed="1.85" pos="183.98" lane="e1to2_0" slope="0.00"/>
        <vehicle id="o1" x="-20.82" y="-1.60" angle="90.00" type="EBUS" speed="2.74" pos="179.18" lane="e1to2_0" slope="0.00"/>
    </timestep>
    <timestep time="1.70">
        <vehicle id="d1" x="-0.96" y="-1.60" angle="90.00" type="EBUS2" speed="0.25" pos="199.04" lane="e1to2_0" slope="0.00"/>
        <vehicle id="d2" x="-4.83" y="-1.60" angle="90.00" type="EBUS2" speed="1.91" pos="195.17" lane="e1to2_0" slope="0.00"/>
        <vehicle id="d3" x="-10.32" y="-1.60" angle="90.00" type="EBUS2" speed="1.97" pos="189.68" lane="e1to2_0" slope="0.00"/>
        <vehicle id="d4" x="-15.82" y="-1.60" angle="90.00" type="EBUS2" speed="1.97" pos="184.18" lane="e1to2_0" slope="0.00"/>
        <vehicle id="o1" x="-20.52" y="-1.60" angle="90.00" type="EBUS" speed="2.92" pos="179.48" lane="e1to2_0" slope="0.00"/>
    </timestep>
    <timestep time="1.80">
        <vehicle id="d1" x="-0.93" y="-1.60" angle="90.00" type="EBUS2" speed="0.37" pos="199.07" lane="e1to2_0" slope="0.00"/>
        <vehicle id="d2" x="-4.67" y="-1.60" angle="90.00" type="EBUS2" speed="1.59" pos="195.33" lane="e1to2_0" slope="0.00"/>
        <vehicle id="d3" x="-10.11" y="-1.60" angle="90.00" type="EBUS2" speed="2.10" pos="189.89" lane="e1to2_0" slope="0.00"/>
        <vehicle id="d4" x="-15.61" y="-1.60" angle="90.00" type="EBUS2" speed="2.10" pos="184.39" lane="e1to2_0" slope="0.00"/>
        <vehicle id="o1" x="-20.21" y="-1.60" angle="90.00" type="EBUS" speed="3.11" pos="179.79" lane="e1to2_0" slope="0.00"/>
    </timestep>
    <timestep time="1.90">
        <vehicle id="d1" x="-0.88" y="-1.60" angle="90.00" type="EBUS2" speed="0.49" pos="199.12" lane="e1to2_0" slope="0.00"/>
        <vehicle id="d2" x="-4.54" y="-1.60" angle="90.00" type="EBUS2" speed="1.34" pos="195.46" lane="e1to2_0" slope="0.00"/>
        <vehicle id="d3" x="-9.89" y="-1.60" angle="90.00" type="EBUS2" speed="2.22" pos="190.11" lane="e1to2_0" slope="0.00"/>
        <vehicle id="d4" x="-15.39" y="-1.60" angle="90.00" type="EBUS2" speed="2.22" pos="184.61" lane="e1to2_0" slope="0.00"/>
        <vehicle id="o1" x="-19.88" y="-1.60" angle="90.00" type="EBUS" speed="3.29" pos="180.12" lane="e1to2_0" slope="0.00"/>
    </timestep>
    <timestep time="2.00">
        <vehicle id="d1" x="-0.81" y="-1.60" angle="90.00" type="EBUS2" speed="0.62" pos="199.19" lane="e1to2_0" slope="0.00"/>
        <vehicle id="d2" x="-4.42" y="-1.60" angle="90.00" type="EBUS2" speed="1.17" pos="195.58" lane="e1to2_0" slope="0.00"/>
        <vehicle id="d3" x="-9.66" y="-1.60" angle="90.00" type="EBUS2" speed="2.34" pos="190.34" lane="e1to2_0" slope="0.00"/>
        <vehicle id="d4" x="-15.16" y="-1.60" angle="90.00" type="EBUS2" speed="2.34" pos="184.84" lane="e1to2_0" slope="0.00"/>
        <vehicle id="o1" x="-19.55" y="-1.60" angle="90.00" type="EBUS" speed="3.36" pos="180.45" lane="e1to2_0" slope="0.00"/>
    </timestep>
    <timestep time="2.10">
        <vehicle id="d1" x="-0.74" y="-1.60" angle="90.00" type="EBUS2" speed="0.74" pos="199.26" lane="e1to2_0" slope="0.00"/>
        <vehicle id="d2" x="-4.31" y="-1.60" angle="90.00" type="EBUS2" speed="1.05" pos="195.69" lane="e1to2_0" slope="0.00"/>
        <vehicle id="d3" x="-9.41" y="-1.60" angle="90.00" type="EBUS2" speed="2.47" pos="190.59" lane="e1to2_0" slope="0.00"/>
        <vehicle id="d4" x="-14.91" y="-1.60" angle="90.00" type="EBUS2" speed="2.47" pos="185.09" lane="e1to2_0" slope="0.00"/>
        <vehicle id="o1" x="-19.23" y="-1.60" angle="90.00" type="EBUS" speed="3.22" pos="180.77" lane="e1to2_0" slope="0.00"/>
    </timestep>
    <timestep time="2.20">
        <vehicle id="d1" x="-0.65" y="-1.60" angle="90.00" type="EBUS2" speed="0.86" pos="199.35" lane="e1to2_0" slope="0.00"/>
        <vehicle id="d2" x="-4.21" y="-1.60" angle="90.00" type="EBUS2" speed="0.99" pos="195.79" lane="e1to2_0" slope="0.00"/>
        <vehicle id="d3" x="-9.15" y="-1.60" angle="90.00" type="EBUS2" speed="2.59" pos="190.85" lane="e1to2_0" slope="0.00"/>
        <vehicle id="d4" x="-14.65" y="-1.60" angle="90.00" type="EBUS2" speed="2.59" pos="185.35" lane="e1to2_0" slope="0.00"/>
        <vehicle id="o1" x="-18.91" y="-1.60" angle="90.00" type="EBUS" speed="3.13" pos="181.09" lane="e1to2_0" slope="0.00"/>
    </timestep>
    <timestep time="2.30">
        <vehicle id="d1" x="-0.56" y="-1.60" angle="90.00" type="EBUS2" speed="0.99" pos="199.44" lane="e1to2_0" slope="0.00"/>
        <vehicle id="d2" x="-4.12" y="-1.60" angle="90.00" type="EBUS2" speed="0.96" pos="195.88" lane="e1to2_0" slope="0.00"/>
        <vehicle id="d3" x="-8.88" y="-1.60" angle="90.00" type="EBUS2" speed="2.71" pos="191.12" lane="e1to2_0" slope="0.00"/>
        <vehicle id="d4" x="-14.38" y="-1.60" angle="90.00" type="EBUS2" speed="2.71" pos="185.62" lane="e1to2_0" slope="0.00"/>
        <vehicle id="o1" x="-18.60" y="-1.60" angle="90.00" type="EBUS" speed="3.08" pos="181.40" lane="e1to2_0" slope="0.00"/>
    </timestep>
    <timestep time="2.40">
        <vehicle id="d1" x="-0.44" y="-1.60" angle="90.00" type="EBUS2" speed="1.11" pos="199.56" lane="e1to2_0" slope="0.00"/>
        <vehicle id="d2" x="-4.02" y="-1.60" angle="90.00" type="EBUS2" speed="0.99" pos="195.98" lane="e1to2_0" slope="0.00"/>
        <vehicle id="d3" x="-8.60" y="-1.60" angle="90.00" type="EBUS2" speed="2.84" pos="191.40" lane="e1to2_0" slope="0.00"/>
        <vehicle id="d4" x="-14.10" y="-1.60" angle="90.00" type="EBUS2" speed="2.84" pos="185.90" lane="e1to2_0" slope="0.00"/>
        <vehicle id="o1" x="-18.30" y="-1.60" angle="90.00" type="EBUS" speed="3.06" pos="181.70" lane="e1to2_0" slope="0.00"/>
    </timestep>
    <timestep time="2.50">
        <vehicle id="d1" x="-0.32" y="-1.60" angle="90.00" type="EBUS2" speed="1.23" pos="199.68" lane="e1to2_0" slope="0.00"/>
        <vehicle id="d2" x="-3.92" y="-1.60" angle="90.00" type="EBUS2" speed="1.04" pos="196.08" lane="e1to2_0" slope="0.00"/>
        <vehicle id="d3" x="-8.31" y="-1.60" angle="90.00" type="EBUS2" speed="2.83" pos="191.69" lane="e1to2_0" slope="0.00"/>
        <vehicle id="d4" x="-13.80" y="-1.60" angle="90.00" type="EBUS2" speed="2.96" pos="186.20" lane="e1to2_0" slope="0.00"/>
        <vehicle id="o1" x="-17.99" y="-1.60" angle="90.00" type="EBUS" speed="3.09" pos="182.01" lane="e1to2_0" slope="0.00"/>
    </timestep>
    <timestep time="2.60">
        <vehicle id="d1" x="-0.19" y="-1.60" angle="90.00" type="EBUS2" speed="1.36" pos="199.81" lane="e1to2_0" slope="0.00"/>
        <vehicle id="d2" x="-3.81" y="-1.60" angle="90.00" type="EBUS2" speed="1.10" pos="196.19" lane="e1to2_0" slope="0.00"/>
        <vehicle id="d3" x="-8.06" y="-1.60" angle="90.00" type="EBUS2" speed="2.55" pos="191.94" lane="e1to2_0" slope="0.00"/>
        <vehicle id="d4" x="-13.49" y="-1.60" angle="90.00" type="EBUS2" speed="3.08" pos="186.51" lane="e1to2_0" slope="0.00"/>
        <vehicle id="o1" x="-17.68" y="-1.60" angle="90.00" type="EBUS" speed="3.13" pos="182.32" lane="e1to2_0" slope="0.00"/>
    </timestep>
    <timestep time="2.70">
        <vehicle id="d1" x="-0.04" y="-1.60" angle="90.00" type="EBUS2" speed="1.48" pos="199.96" lane="e1to2_0" slope="0.00"/>
        <vehicle id="d2" x="-3.69" y="-1.60" angle="90.00" type="EBUS2" speed="1.18" pos="196.31" lane="e1to2_0" slope="0.00"/>
        <vehicle id="d3" x="-7.83" y="-1.60" angle="90.00" type="EBUS2" speed="2.32" pos="192.17" lane="e1to2_0" slope="0.00"/>
        <vehicle id="d4" x="-13.17" y="-1.60" angle="90.00" type="EBUS2" speed="3.21" pos="186.83" lane="e1to2_0" slope="0.00"/>
        <vehicle id="o1" x="-17.36" y="-1.60" angle="90.00" type="EBUS" speed="3.19" pos="182.64" lane="e1to2_0" slope="0.00"/>
    </timestep>
    <timestep time="2.80">
        <vehicle id="d1" x="0.02" y="-1.60" angle="90.00" type="EBUS2" speed="1.60" pos="0.02" lane="e2to3_0" slope="0.00"/>
        <vehicle id="d2" x="-3.56" y="-1.60" angle="90.00" type="EBUS2" speed="1.27" pos="196.44" lane="e1to2_0" slope="0.00"/>
        <vehicle id="d3" x="-7.61" y="-1.60" angle="90.00" type="EBUS2" speed="2.14" pos="192.39" lane="e1to2_0" slope="0.00"/>
        <vehicle id="d4" x="-12.84" y="-1.60" angle="90.00" type="EBUS2" speed="3.33" pos="187.16" lane="e1to2_0" slope="0.00"/>
        <vehicle id="o1" x="-17.03" y="-1.60" angle="90.00" type="EBUS" speed="3.26" pos="182.97" lane="e1to2_0" slope="0.00"/>
    </timestep>
    <timestep time="2.90">
        <vehicle id="d1" x="0.20" y="-1.60" angle="90.00" type="EBUS2" speed="1.73" pos="0.20" lane="e2to3_0" slope="0.00"/>
        <vehicle id="d2" x="-3.43" y="-1.60" angle="90.00" type="EBUS2" speed="1.36" pos="196.57" lane="e1to2_0" slope="0.00"/>
        <vehicle id="d3" x="-7.41" y="-1.60" angle="90.00" type="EBUS2" speed="2.00" pos="192.59" lane="e1to2_0" slope="0.00"/>
        <vehicle id="d4" x="-12.49" y="-1.60" angle="90.00" type="EBUS2" speed="3.45" pos="187.51" lane="e1to2_0" slope="0.00"/>
        <vehicle id="o1" x="-16.70" y="-1.60" angle="90.00" type="EBUS" speed="3.34" pos="183.30" lane="e1to2_0" slope="0.00"/>
    </timestep>
    <timestep time="3.00">
        <vehicle id="d1" x="0.38" y="-1.60" angle="90.00" type="EBUS2" speed="1.85" pos="0.38" lane="e2to3_0" slope="0.00"/>
        <vehicle id="d2" x="-3.28" y="-1.60" angle="90.00" type="EBUS2" speed="1.46" pos="196.72" lane="e1to2_0" slope="0.00"/>
        <vehicle id="d3" x="-7.22" y="-1.60" angle="90.00" type="EBUS2" speed="1.91" pos="192.78" lane="e1to2_0" slope="0.00"/>
        <vehicle id="d4" x="-12.13" y="-1.60" angle="90.00" type="EBUS2" speed="3.58" pos="187.87" lane="e1to2_0" slope="0.00"/>
        <vehicle id="o1" x="-16.36" y="-1.60" angle="90.00" type="EBUS" speed="3.42" pos="183.64" lane="e1to2_0" slope="0.00"/>
    </timestep>
    <timestep time="3.10">
        <vehicle id="d1" x="0.58" y="-1.60" angle="90.00" type="EBUS2" speed="1.97" pos="0.58" lane="e2to3_0" slope="0.00"/>
        <vehicle id="d2" x="-3.12" y="-1.60" angle="90.00" type="EBUS2" speed="1.58" pos="196.88" lane="e1to2_0" slope="0.00"/>
        <vehicle id="d3" x="-7.04" y="-1.60" angle="90.00" type="EBUS2" speed="1.85" pos="192.96" lane="e1to2_0" slope="0.00"/>
        <vehicle id="d4" x="-11.79" y="-1.60" angle="90.00" type="EBUS2" speed="3.47" pos="188.21" lane="e1to2_0" slope="0.00"/>
        <vehicle id="o1" x="-16.00" y="-1.60" angle="90.00" type="EBUS" speed="3.52" pos="184.00" lane="e1to2_0" slope="0.00"/>
    </timestep>
    <timestep time="3.20">
        <vehicle id="d1" x="0.79" y="-1.60" angle="90.00" type="EBUS2" speed="2.10" pos="0.79" lane="e2to3_0" slope="0.00"/>
        <vehicle id="d2" x="-2.95" y="-1.60" angle="90.00" type="EBUS2" speed="1.70" pos="197.05" lane="e1to2_0" slope="0.00"/>
        <vehicle id="d3" x="-6.85" y="-1.60" angle="90.00" type="EBUS2" speed="1.82" pos="193.15" lane="e1to2_0" slope="0.00"/>
        <vehicle id="d4" x="-11.47" y="-1.60" angle="90.00" type="EBUS2" speed="3.22" pos="188.53" lane="e1to2_0" slope="0.00"/>
        <vehicle id="o1" x="-15.66" y="-1.60" angle="90.00" type="EBUS" speed="3.45" pos="184.34" lane="e1to2_0" slope="0.00"/>
    </timestep>
    <timestep time="3.30">
        <vehicle id="d1" x="1.01" y="-1.60" angle="90.00" type="EBUS2" speed="2.22" pos="1.01" lane="e2to3_0" slope="0.00"/>
        <vehicle id="d2" x="-2.77" y="-1.60" angle="90.00" type="EBUS2" speed="1.82" pos="197.23" lane="e1to2_0" slope="0.00"/>
        <vehicle id="d3" x="-6.67" y="-1.60" angle="90.00" type="EBUS2" speed="1.82" pos="193.33" lane="e1to2_0" slope="0.00"/>
        <vehicle id="d4" x="-11.16" y="-1.60" angle="90.00" type="EBUS2" speed="3.01" pos="188.84" lane="e1to2_0" slope="0.00"/>
        <vehicle id="o1" x="-15.33" y="-1.60" angle="90.00" type="EBUS" speed="3.28" pos="184.67" lane="e1to2_0" slope="0.00"/>
    </timestep>
    <timestep time="3.40">
        <vehicle id="d1" x="1.24" y="-1.60" angle="90.00" type="EBUS2" speed="2.34" pos="1.24" lane="e2to3_0" slope="0.00"/>
        <vehicle id="d2" x="-2.57" y="-1.60" angle="90.00" type="EBUS2" speed="1.94" pos="197.43" lane="e1to2_0" slope="0.00"/>
        <vehicle id="d3" x="-6.49" y="-1.60" angle="90.00" type="EBUS2" speed="1.85" pos="193.51" lane="e1to2_0" slope="0.00"/>
        <vehicle id="d4" x="-10.88" y="-1.60" angle="90.00" type="EBUS2" speed="2.84" pos="189.12" lane="e1to2_0" slope="0.00"/>
        <vehicle id="o1" x="-15.02" y="-1.60" angle="90.00" type="EBUS" speed="3.11" pos="184.98" lane="e1to2_0" slope="0.00"/>
    </timestep>
    <timestep time="3.50">
        <vehicle id="d1" x="1.49" y="-1.60" angle="90.00" type="EBUS2" speed="2.47" pos="1.49" lane="e2to3_0" slope="0.00"/>
        <vehicle id="d2" x="-2.37" y="-1.60" angle="90.00" type="EBUS2" speed="2.05" pos="197.63" lane="e1to2_0" slope="0.00"/>
        <vehicle id="d3" x="-6.29" y="-1.60" angle="90.00" type="EBUS2" speed="1.91" pos="193.71" lane="e1to2_0" slope="0.00"/>
        <vehicle id="d4" x="-10.61" y="-1.60" angle="90.00" type="EBUS2" speed="2.70" pos="189.39" lane="e1to2_0" slope="0.00"/>
        <vehicle id="o1" x="-14.72" y="-1.60" angle="90.00" type="EBUS" speed="2.97" pos="185.28" lane="e1to2_0" slope="0.00"/>
    </timestep>
    <timestep time="3.60">
        <vehicle id="d1" x="1.75" y="-1.60" angle="90.00" type="EBUS2" speed="2.59" pos="1.75" lane="e2to3_0" slope="0.00"/>
        <vehicle id="d2" x="-2.15" y="-1.60" angle="90.00" type="EBUS2" speed="2.17" pos="197.85" lane="e1to2_0" slope="0.00"/>
        <vehicle id="d3" x="-6.10" y="-1.60" angle="90.00" type="EBUS2" speed="1.97" pos="193.90" lane="e1to2_0" slope="0.00"/>
        <vehicle id="d4" x="-10.35" y="-1.60" angle="90.00" type="EBUS2" speed="2.58" pos="189.65" lane="e1to2_0" slope="0.00"/>
        <vehicle id="o1" x="-14.44" y="-1.60" angle="90.00" type="EBUS" speed="2.85" pos="185.56" lane="e1to2_0" slope="0.00"/>
    </timestep>
    <timestep time="3.70">
        <vehicle id="d1" x="2.02" y="-1.60" angle="90.00" type="EBUS2" speed="2.71" pos="2.02" lane="e2to3_0" slope="0.00"/>
        <vehicle id="d2" x="-1.92" y="-1.60" angle="90.00" type="EBUS2" speed="2.28" pos="198.08" lane="e1to2_0" slope="0.00"/>
        <vehicle id="d3" x="-5.89" y="-1.60" angle="90.00" type="EBUS2" speed="2.04" pos="194.11" lane="e1to2_0" slope="0.00"/>
        <vehicle id="d4" x="-10.10" y="-1.60" angle="90.00" type="EBUS2" speed="2.50" pos="189.90" lane="e1to2_0" slope="0.00"/>
        <vehicle id="o1" x="-14.16" y="-1.60" angle="90.00" type="EBUS" speed="2.76" pos="185.84" lane="e1to2_0" slope="0.00"/>
    </timestep>
    <timestep time="3.80">
        <vehicle id="d1" x="2.30" y="-1.60" angle="90.00" type="EBUS2" speed="2.84" pos="2.30" lane="e2to3_0" slope="0.00"/>
        <vehicle id="d2" x="-1.68" y="-1.60" angle="90.00" type="EBUS2" speed="2.40" pos="198.32" lane="e1to2_0" slope="0.00"/>
        <vehicle id="d3" x="-5.68" y="-1.60" angle="90.00" type="EBUS2" speed="2.12" pos="194.32" lane="e1to2_0" slope="0.00"/>
        <vehicle id="d4" x="-9.86" y="-1.60" angle="90.00" type="EBUS2" speed="2.45" pos="190.14" lane="e1to2_0" slope="0.00"/>
        <vehicle id="o1" x="-13.89" y="-1.60" angle="90.00" type="EBUS" speed="2.68" pos="186.11" lane="e1to2_0" slope="0.00"/>
    </timestep>
    <timestep time="3.90">
        <vehicle id="d1" x="2.60" y="-1.60" angle="90.00" type="EBUS2" speed="2.96" pos="2.60" lane="e2to3_0" slope="0.00"/>
        <vehicle id="d2" x="-1.43" y="-1.60" angle="90.00" type="EBUS2" speed="2.52" pos="198.57" lane="e1to2_0" slope="0.00"/>
        <vehicle id="d3" x="-5.46" y="-1.60" angle="90.00" type="EBUS2" speed="2.21" pos="194.54" lane="e1to2_0" slope="0.00"/>
        <vehicle id="d4" x="-9.62" y="-1.60" angle="90.00" type="EBUS2" speed="2.42" pos="190.38" lane="e1to2_0" slope="0.00"/>
        <vehicle id="o1" x="-13.63" y="-1.60" angle="90.00" type="EBUS" speed="2.61" pos="186.37" lane="e1to2_0" slope="0.00"/>
    </timestep>
    <timestep time="4.00">
        <vehicle id="d1" x="2.91" y="-1.60" angle="90.00" type="EBUS2" speed="3.08" pos="2.91" lane="e2to3_0" slope="0.00"/>
        <vehicle id="d2" x="-1.17" y="-1.60" angle="90.00" type="EBUS2" speed="2.65" pos="198.83" lane="e1to2_0" slope="0.00"/>
        <vehicle id="d3" x="-5.23" y="-1.60" angle="90.00" type="EBUS2" speed="2.30" pos="194.77" lane="e1to2_0" slope="0.00"/>
        <vehicle id="d4" x="-9.37" y="-1.60" angle="90.00" type="EBUS2" speed="2.41" pos="190.63" lane="e1to2_0" slope="0.00"/>
        <vehicle id="o1" x="-13.38" y="-1.60" angle="90.00" type="EBUS" speed="2.55" pos="186.62" lane="e1to2_0" slope="0.00"/>
    </timestep>
    <timestep time="4.10">
        <vehicle id="d1" x="3.23" y="-1.60" angle="90.00" type="EBUS2" speed="3.21" pos="3.23" lane="e2to3_0" slope="0.00"/>
        <vehicle id="d2" x="-0.89" y="-1.60" angle="90.00" type="EBUS2" speed="2.77" pos="199.11" lane="e1to2_0" slope="0.00"/>
        <vehicle id="d3" x="-4.99" y="-1.60" angle="90.00" type="EBUS2" speed="2.40" pos="195.01" lane="e1to2_0" slope="0.00"/>
        <vehicle id="d4" x="-9.13" y="-1.60" angle="90.00" type="EBUS2" speed="2.43" pos="190.87" lane="e1to2_0" slope="0.00"/>
        <vehicle id="o1" x="-13.13" y="-1.60" angle="90.00" type="EBUS" speed="2.52" pos="186.87" lane="e1to2_0" slope="0.00"/>
    </timestep>
    <timestep time="4.20">
        <vehicle id="d1" x="3.56" y="-1.60" angle="90.00" type="EBUS2" speed="3.33" pos="3.56" lane="e2to3_0" slope="0.00"/>
        <vehicle id="d2" x="-0.60" y="-1.60" angle="90.00" type="EBUS2" speed="2.89" pos="199.40" lane="e1to2_0" slope="0.00"/>
        <vehicle id="d3" x="-4.74" y="-1.60" angle="90.00" type="EBUS2" speed="2.52" pos="195.26" lane="e1to2_0" slope="0.00"/>
        <vehicle id="d4" x="-8.89" y="-1.60" angle="90.00" type="EBUS2" speed="2.46" pos="191.11" lane="e1to2_0" slope="0.00"/>
        <vehicle id="o1" x="-12.88" y="-1.60" angle="90.00" type="EBUS" speed="2.51" pos="187.12" lane="e1to2_0" slope="0.00"/>
    </timestep>
    <timestep time="4.30">
        <vehicle id="d1" x="3.91" y="-1.60" angle="90.00" type="EBUS2" speed="3.45" pos="3.91" lane="e2to3_0" slope="0.00"/>