<?xml version="1.0" encoding="UTF-8"?>

<!-- generated on 2023-02-18 09:37:36 by Eclipse SUMO libsumo Version v1_15_0+0841-ec7ac00463d
<configuration xmlns:xsi="http://www.w3.org/2001/XMLSchema-instance" xsi:noNamespaceSchemaLocation="http://sumo.dlr.de/xsd/libsumoConfiguration.xsd">

    <input>
        <net-file value="/home/liuli/SUMONBDT/sumoCfgs1/my1Lane1TLS.net.xml"/>
        <route-files value="/home/liuli/SUMONBDT/sumoCfgs1/m1Lane1Tls.rou.xml"/>
    </input>

    <output>
        <fcd-output value="/home/liuli/SUMONBDT/sumoCfgs1/fcd-output.xml"/>
        <full-output value="/home/liuli/SUMONBDT/sumoCfgs1/full-output.xml"/>
        <summary-output value="/home/liuli/SUMONBDT/sumoCfgs1/summary.xml"/>
    </output>

    <time>
        <begin value="0"/>
        <end value="50"/>
        <step-length value="0.1"/>
    </time>

    <processing>
        <ignore-route-errors value="true"/>
    </processing>

</configuration>
-->

<fcd-export xmlns:xsi="http://www.w3.org/2001/XMLSchema-instance" xsi:noNamespaceSchemaLocation="http://sumo.dlr.de/xsd/fcd_file.xsd">
    <timestep time="0.00"/>
    <timestep time="0.10">
        <vehicle id="d1" x="-1.00" y="-1.60" angle="90.00" type="EBUS2" speed="0.00" pos="199.00" lane="e1to2_0" slope="0.00"/>
        <vehicle id="o1" x="-6.50" y="-1.60" angle="90.00" type="EBUS" speed="0.00" pos="193.50" lane="e1to2_0" slope="0.00"/>
    </timestep>
    <timestep time="0.20">
        <vehicle id="d1" x="-1.00" y="-1.60" angle="90.00" type="EBUS2" speed="0.00" pos="199.00" lane="e1to2_0" slope="0.00"/>
        <vehicle id="o1" x="-6.48" y="-1.60" angle="90.00" type="EBUS" speed="0.18" pos="193.52" lane="e1to2_0" slope="0.00"/>
    </timestep>
    <timestep time="0.30">
        <vehicle id="d1" x="-1.00" y="-1.60" angle="90.00" type="EBUS2" speed="0.00" pos="199.00" lane="e1to2_0" slope="0.00"/>
        <vehicle id="o1" x="-6.45" y="-1.60" angle="90.00" type="EBUS" speed="0.36" pos="193.55" lane="e1to2_0" slope="0.00"/>
    </timestep>
    <timestep time="0.40">
        <vehicle id="d1" x="-1.00" y="-1.60" angle="90.00" type="EBUS2" speed="0.00" pos="199.00" lane="e1to2_0" slope="0.00"/>
        <vehicle id="o1" x="-6.39" y="-1.60" angle="90.00" type="EBUS" speed="0.55" pos="193.61" lane="e1to2_0" slope="0.00"/>
    </timestep>
    <timestep time="0.50">
        <vehicle id="d1" x="-1.00" y="-1.60" angle="90.00" type="EBUS2" speed="0.00" pos="199.00" lane="e1to2_0" slope="0.00"/>
        <vehicle id="o1" x="-6.35" y="-1.60" angle="90.00" type="EBUS" speed="0.40" pos="193.65" lane="e1to2_0" slope="0.00"/>
    </timestep>
    <timestep time="0.60">
        <vehicle id="d1" x="-1.00" y="-1.60" angle="90.00" type="EBUS2" speed="0.00" pos="199.00" lane="e1to2_0" slope="0.00"/>
        <vehicle id="o1" x="-6.32" y="-1.60" angle="90.00" type="EBUS" speed="0.28" pos="193.68" lane="e1to2_0" slope="0.00"/>
    </timestep>
    <timestep time="0.70">
        <vehicle id="d1" x="-1.00" y="-1.60" angle="90.00" type="EBUS2" speed="0.00" pos="199.00" lane="e1to2_0" slope="0.00"/>
        <vehicle id="o1" x="-6.30" y="-1.60" angle="90.00" type="EBUS" speed="0.19" pos="193.70" lane="e1to2_0" slope="0.00"/>
    </timestep>
    <timestep time="0.80">
        <vehicle id="d1" x="-1.00" y="-1.60" angle="90.00" type="EBUS2" speed="0.00" pos="199.00" lane="e1to2_0" slope="0.00"/>
        <vehicle id="o1" x="-6.29" y="-1.60" angle="90.00" type="EBUS" speed="0.13" pos="193.71" lane="e1to2_0" slope="0.00"/>
    </timestep>
    <timestep time="0.90">
        <vehicle id="d1" x="-1.00" y="-1.60" angle="90.00" type="EBUS2" speed="0.00" pos="199.00" lane="e1to2_0" slope="0.00"/>
        <vehicle id="o1" x="-6.28" y="-1.60" angle="90.00" type="EBUS" speed="0.09" pos="193.72" lane="e1to2_0" slope="0.00"/>
    </timestep>
    <timestep time="1.00">
        <vehicle id="d1" x="-1.00" y="-1.60" angle="90.00" type="EBUS2" speed="0.00" pos="199.00" lane="e1to2_0" slope="0.00"/>
        <vehicle id="o1" x="-6.27" y="-1.60" angle="90.00" type="EBUS" speed="0.06" pos="193.73" lane="e1to2_0" slope="0.00"/>
    </timestep>
    <timestep time="1.10">
        <vehicle id="d1" x="-1.00" y="-1.60" angle="90.00" type="EBUS2" speed="0.00" pos="199.00" lane="e1to2_0" slope="0.00"/>
        <vehicle id="o1" x="-6.27" y="-1.60" angle="90.00" type="EBUS" speed="0.04" pos="193.73" lane="e1to2_0" slope="0.00"/>
    </timestep>
    <timestep time="1.20">
        <vehicle id="d1" x="-1.00" y="-1.60" angle="90.00" type="EBUS2" speed="0.00" pos="199.00" lane="e1to2_0" slope="0.00"/>
        <vehicle id="o1" x="-6.27" y="-1.60" angle="90.00" type="EBUS" speed="0.03" pos="193.73" lane="e1to2_0" slope="0.00"/>
    </timestep>
    <timestep time="1.30">
        <vehicle id="d1" x="-1.00" y="-1.60" angle="90.00" type="EBUS2" speed="0.00" pos="199.00" lane="e1to2_0" slope="0.00"/>
        <vehicle id="o1" x="-6.27" y="-1.60" angle="90.00" type="EBUS" speed="0.02" pos="193.73" lane="e1to2_0" slope="0.00"/>
    </timestep>
    <timestep time="1.40">
        <vehicle id="d1" x="-1.00" y="-1.60" angle="90.00" type="EBUS2" speed="0.00" pos="199.00" lane="e1to2_0" slope="0.00"/>
        <vehicle id="o1" x="-6.26" y="-1.60" angle="90.00" type="EBUS" speed="0.01" pos="193.74" lane="e1to2_0" slope="0.00"/>
    </timestep>
    <timestep time="1.50">
        <vehicle id="d1" x="-1.00" y="-1.60" angle="90.00" type="EBUS2" speed="0.00" pos="199.00" lane="e1to2_0" slope="0.00"/>
        <vehicle id="o1" x="-6.26" y="-1.60" angle="90.00" type="EBUS" speed="0.01" pos="193.74" lane="e1to2_0" slope="0.00"/>
    </timestep>
    <timestep time="1.60">
        <vehicle id="d1" x="-1.00" y="-1.60" angle="90.00" type="EBUS2" speed="0.00" pos="199.00" lane="e1to2_0" slope="0.00"/>
        <vehicle id="o1" x="-6.26" y="-1.60" angle="90.00" type="EBUS" speed="0.01" pos="193.74" lane="e1to2_0" slope="0.00"/>
    </timestep>
    <timestep time="1.70">
        <vehicle id="d1" x="-1.00" y="-1.60" angle="90.00" type="EBUS2" speed="0.00" pos="199.00" lane="e1to2_0" slope="0.00"/>
        <vehicle id="o1" x="-6.26" y="-1.60" angle="90.00" type="EBUS" speed="0.00" pos="193.74" lane="e1to2_0" slope="0.00"/>
    </timestep>
    <timestep time="1.80">
        <vehicle id="d1" x="-1.00" y="-1.60" angle="90.00" type="EBUS2" speed="0.00" pos="199.00" lane="e1to2_0" slope="0.00"/>
        <vehicle id="o1" x="-6.26" y="-1.60" angle="90.00" type="EBUS" speed="0.00" pos="193.74" lane="e1to2_0" slope="0.00"/>
    </timestep>
    <timestep time="1.90">
        <vehicle id="d1" x="-1.00" y="-1.60" angle="90.00" type="EBUS2" speed="0.00" pos="199.00" lane="e1to2_0" slope="0.00"/>
        <vehicle id="o1" x="-6.26" y="-1.60" angle="90.00" type="EBUS" speed="0.00" pos="193.74" lane="e1to2_0" slope="0.00"/>
    </timestep>
    <timestep time="2.00">
        <vehicle id="d1" x="-1.00" y="-1.60" angle="90.00" type="EBUS2" speed="0.00" pos="199.00" lane="e1to2_0" slope="0.00"/>
        <vehicle id="o1" x="-6.26" y="-1.60" angle="90.00" type="EBUS" speed="0.00" pos="193.74" lane="e1to2_0" slope="0.00"/>
    </timestep>
    <timestep time="2.10">
        <vehicle id="d1" x="-1.00" y="-1.60" angle="90.00" type="EBUS2" speed="0.00" pos="199.00" lane="e1to2_0" slope="0.00"/>
        <vehicle id="o1" x="-6.26" y="-1.60" angle="90.00" type="EBUS" speed="0.00" pos="193.74" lane="e1to2_0" slope="0.00"/>
    </timestep>
    <timestep time="2.20">
        <vehicle id="d1" x="-1.00" y="-1.60" angle="90.00" type="EBUS2" speed="0.00" pos="199.00" lane="e1to2_0" slope="0.00"/>
        <vehicle id="o1" x="-6.26" y="-1.60" angle="90.00" type="EBUS" speed="0.00" pos="193.74" lane="e1to2_0" slope="0.00"/>
    </timestep>
    <timestep time="2.30">
        <vehicle id="d1" x="-1.00" y="-1.60" angle="90.00" type="EBUS2" speed="0.00" pos="199.00" lane="e1to2_0" slope="0.00"/>
        <vehicle id="o1" x="-6.26" y="-1.60" angle="90.00" type="EBUS" speed="0.00" pos="193.74" lane="e1to2_0" slope="0.00"/>
    </timestep>
    <timestep time="2.40">
        <vehicle id="d1" x="-1.00" y="-1.60" angle="90.00" type="EBUS2" speed="0.00" pos="199.00" lane="e1to2_0" slope="0.00"/>
        <vehicle id="o1" x="-6.26" y="-1.60" angle="90.00" type="EBUS" speed="0.00" pos="193.74" lane="e1to2_0" slope="0.00"/>
    </timestep>
    <timestep time="2.50">
        <vehicle id="d1" x="-1.00" y="-1.60" angle="90.00" type="EBUS2" speed="0.00" pos="199.00" lane="e1to2_0" slope="0.00"/>
        <vehicle id="o1" x="-6.26" y="-1.60" angle="90.00" type="EBUS" speed="0.00" pos="193.74" lane="e1to2_0" slope="0.00"/>
    </timestep>
    <timestep time="2.60">
        <vehicle id="d1" x="-1.00" y="-1.60" angle="90.00" type="EBUS2" speed="0.00" pos="199.00" lane="e1to2_0" slope="0.00"/>
        <vehicle id="o1" x="-6.26" y="-1.60" angle="90.00" type="EBUS" speed="0.00" pos="193.74" lane="e1to2_0" slope="0.00"/>
    </timestep>
    <timestep time="2.70">
        <vehicle id="d1" x="-1.00" y="-1.60" angle="90.00" type="EBUS2" speed="0.00" pos="199.00" lane="e1to2_0" slope="0.00"/>
        <vehicle id="o1" x="-6.26" y="-1.60" angle="90.00" type="EBUS" speed="0.00" pos="193.74" lane="e1to2_0" slope="0.00"/>
    </timestep>
    <timestep time="2.80">
        <vehicle id="d1" x="-1.00" y="-1.60" angle="90.00" type="EBUS2" speed="0.00" pos="199.00" lane="e1to2_0" slope="0.00"/>
        <vehicle id="o1" x="-6.26" y="-1.60" angle="90.00" type="EBUS" speed="0.00" pos="193.74" lane="e1to2_0" slope="0.00"/>
    </timestep>
    <timestep time="2.90">
        <vehicle id="d1" x="-1.00" y="-1.60" angle="90.00" type="EBUS2" speed="0.00" pos="199.00" lane="e1to2_0" slope="0.00"/>
        <vehicle id="o1" x="-6.26" y="-1.60" angle="90.00" type="EBUS" speed="0.00" pos="193.74" lane="e1to2_0" slope="0.00"/>
    </timestep>
    <timestep time="3.00">
        <vehicle id="d1" x="-1.00" y="-1.60" angle="90.00" type="EBUS2" speed="0.00" pos="199.00" lane="e1to2_0" slope="0.00"/>
        <vehicle id="o1" x="-6.26" y="-1.60" angle="90.00" type="EBUS" speed="0.00" pos="193.74" lane="e1to2_0" slope="0.00"/>
    </timestep>
    <timestep time="3.10">
        <vehicle id="d1" x="-1.00" y="-1.60" angle="90.00" type="EBUS2" speed="0.00" pos="199.00" lane="e1to2_0" slope="0.00"/>
        <vehicle id="o1" x="-6.26" y="-1.60" angle="90.00" type="EBUS" speed="0.00" pos="193.74" lane="e1to2_0" slope="0.00"/>
    </timestep>
    <timestep time="3.20">
        <vehicle id="d1" x="-1.00" y="-1.60" angle="90.00" type="EBUS2" speed="0.00" pos="199.00" lane="e1to2_0" slope="0.00"/>
        <vehicle id="o1" x="-6.26" y="-1.60" angle="90.00" type="EBUS" speed="0.00" pos="193.74" lane="e1to2_0" slope="0.00"/>
    </timestep>
    <timestep time="3.30">
        <vehicle id="d1" x="-1.00" y="-1.60" angle="90.00" type="EBUS2" speed="0.00" pos="199.00" lane="e1to2_0" slope="0.00"/>
        <vehicle id="o1" x="-6.26" y="-1.60" angle="90.00" type="EBUS" speed="0.00" pos="193.74" lane="e1to2_0" slope="0.00"/>
    </timestep>
    <timestep time="3.40">
        <vehicle id="d1" x="-1.00" y="-1.60" angle="90.00" type="EBUS2" speed="0.00" pos="199.00" lane="e1to2_0" slope="0.00"/>
        <vehicle id="o1" x="-6.26" y="-1.60" angle="90.00" type="EBUS" speed="0.00" pos="193.74" lane="e1to2_0" slope="0.00"/>
    </timestep>
    <timestep time="3.50">
        <vehicle id="d1" x="-1.00" y="-1.60" angle="90.00" type="EBUS2" speed="0.00" pos="199.00" lane="e1to2_0" slope="0.00"/>
        <vehicle id="o1" x="-6.26" y="-1.60" angle="90.00" type="EBUS" speed="0.00" pos="193.74" lane="e1to2_0" slope="0.00"/>
    </timestep>
    <timestep time="3.60">
        <vehicle id="d1" x="-1.00" y="-1.60" angle="90.00" type="EBUS2" speed="0.00" pos="199.00" lane="e1to2_0" slope="0.00"/>
        <vehicle id="o1" x="-6.26" y="-1.60" angle="90.00" type="EBUS" speed="0.00" pos="193.74" lane="e1to2_0" slope="0.00"/>
    </timestep>
    <timestep time="3.70">
        <vehicle id="d1" x="-1.00" y="-1.60" angle="90.00" type="EBUS2" speed="0.00" pos="199.00" lane="e1to2_0" slope="0.00"/>
        <vehicle id="o1" x="-6.26" y="-1.60" angle="90.00" type="EBUS" speed="0.00" pos="193.74" lane="e1to2_0" slope="0.00"/>
    </timestep>
    <timestep time="3.80">
        <vehicle id="d1" x="-1.00" y="-1.60" angle="90.00" type="EBUS2" speed="0.00" pos="199.00" lane="e1to2_0" slope="0.00"/>
        <vehicle id="o1" x="-6.26" y="-1.60" angle="90.00" type="EBUS" speed="0.00" pos="193.74" lane="e1to2_0" slope="0.00"/>
    </timestep>
    <timestep time="3.90">
        <vehicle id="d1" x="-1.00" y="-1.60" angle="90.00" type="EBUS2" speed="0.00" pos="199.00" lane="e1to2_0" slope="0.00"/>
        <vehicle id="o1" x="-6.26" y="-1.60" angle="90.00" type="EBUS" speed="0.00" pos="193.74" lane="e1to2_0" slope="0.00"/>
    </timestep>
    <timestep time="4.00">
        <vehicle id="d1" x="-1.00" y="-1.60" angle="90.00" type="EBUS2" speed="0.00" pos="199.00" lane="e1to2_0" slope="0.00"/>
        <vehicle id="o1" x="-6.26" y="-1.60" angle="90.00" type="EBUS" speed="0.00" pos="193.74" lane="e1to2_0" slope="0.00"/>
    </timestep>
    <timestep time="4.10">
        <vehicle id="d1" x="-1.00" y="-1.60" angle="90.00" type="EBUS2" speed="0.00" pos="199.00" lane="e1to2_0" slope="0.00"/>
        <vehicle id="o1" x="-6.26" y="-1.60" angle="90.00" type="EBUS" speed="0.00" pos="193.74" lane="e1to2_0" slope="0.00"/>
    </timestep>
    <timestep time="4.20">
        <vehicle id="d1" x="-1.00" y="-1.60" angle="90.00" type="EBUS2" speed="0.00" pos="199.00" lane="e1to2_0" slope="0.00"/>
        <vehicle id="o1" x="-6.26" y="-1.60" angle="90.00" type="EBUS" speed="0.00" pos="193.74" lane="e1to2_0" slope="0.00"/>
    </timestep>
    <timestep time="4.30">
        <vehicle id="d1" x="-1.00" y="-1.60" angle="90.00" type="EBUS2" speed="0.00" pos="199.00" lane="e1to2_0" slope="0.00"/>
        <vehicle id="o1" x="-6.26" y="-1.60" angle="90.00" type="EBUS" speed="0.00" pos="193.74" lane="e1to2_0" slope="0.00"/>
    </timestep>
    <timestep time="4.40">
        <vehicle id="d1" x="-1.00" y="-1.60" angle="90.00" type="EBUS2" speed="0.00" pos="199.00" lane="e1to2_0" slope="0.00"/>
        <vehicle id="o1" x="-6.26" y="-1.60" angle="90.00" type="EBUS" speed="0.00" pos="193.74" lane="e1to2_0" slope="0.00"/>
    </timestep>
    <timestep time="4.50">
        <vehicle id="d1" x="-1.00" y="-1.60" angle="90.00" type="EBUS2" speed="0.00" pos="199.00" lane="e1to2_0" slope="0.00"/>
        <vehicle id="o1" x="-6.26" y="-1.60" angle="90.00" type="EBUS" speed="0.00" pos="193.74" lane="e1to2_0" slope="0.00"/>
    </timestep>
    <timestep time="4.60">
        <vehicle id="d1" x="-1.00" y="-1.60" angle="90.00" type="EBUS2" speed="0.00" pos="199.00" lane="e1to2_0" slope="0.00"/>
        <vehicle id="o1" x="-6.26" y="-1.60" angle="90.00" type="EBUS" speed="0.00" pos="193.74" lane="e1to2_0" slope="0.00"/>
    </timestep>
    <timestep time="4.70">
        <vehicle id="d1" x="-1.00" y="-1.60" angle="90.00" type="EBUS2" speed="0.00" pos="199.00" lane="e1to2_0" slope="0.00"/>
        <vehicle id="o1" x="-6.26" y="-1.60" angle="90.00" type="EBUS" speed="0.00" pos="193.74" lane="e1to2_0" slope="0.00"/>
    </timestep>
    <timestep time="4.80">
        <vehicle id="d1" x="-1.00" y="-1.60" angle="90.00" type="EBUS2" speed="0.00" pos="199.00" lane="e1to2_0" slope="0.00"/>
        <vehicle id="o1" x="-6.26" y="-1.60" angle="90.00" type="EBUS" speed="0.00" pos="193.74" lane="e1to2_0" slope="0.00"/>
    </timestep>
    <timestep time="4.90">
        <vehicle id="d1" x="-1.00" y="-1.60" angle="90.00" type="EBUS2" speed="0.00" pos="199.00" lane="e1to2_0" slope="0.00"/>
        <vehicle id="o1" x="-6.26" y="-1.60" angle="90.00" type="EBUS" speed="0.00" pos="193.74" lane="e1to2_0" slope="0.00"/>
    </timestep>
    <timestep time="5.00">
        <vehicle id="d1" x="-1.00" y="-1.60" angle="90.00" type="EBUS2" speed="0.00" pos="199.00" lane="e1to2_0" slope="0.00"/>
        <vehicle id="o1" x="-6.26" y="-1.60" angle="90.00" type="EBUS" speed="0.00" pos="193.74" lane="e1to2_0" slope="0.00"/>
    </timestep>
    <timestep time="5.10">
        <vehicle id="d1" x="-1.00" y="-1.60" angle="90.00" type="EBUS2" speed="0.00" pos="199.00" lane="e1to2_0" slope="0.00"/>
        <vehicle id="o1" x="-6.26" y="-1.60" angle="90.00" type="EBUS" speed="0.00" pos="193.74" lane="e1to2_0" slope="0.00"/>
    </timestep>
    <timestep time="5.20">
        <vehicle id="d1" x="-1.00" y="-1.60" angle="90.00" type="EBUS2" speed="0.00" pos="199.00" lane="e1to2_0" slope="0.00"/>
        <vehicle id="o1" x="-6.26" y="-1.60" angle="90.00" type="EBUS" speed="0.00" pos="193.74" lane="e1to2_0" slope="0.00"/>
    </timestep>
    <timestep time="5.30">
        <vehicle id="d1" x="-1.00" y="-1.60" angle="90.00" type="EBUS2" speed="0.00" pos="199.00" lane="e1to2_0" slope="0.00"/>
        <vehicle id="o1" x="-6.26" y="-1.60" angle="90.00" type="EBUS" speed="0.00" pos="193.74" lane="e1to2_0" slope="0.00"/>
    </timestep>
    <timestep time="5.40">
        <vehicle id="d1" x="-1.00" y="-1.60" angle="90.00" type="EBUS2" speed="0.00" pos="199.00" lane="e1to2_0" slope="0.00"/>
        <vehicle id="o1" x="-6.26" y="-1.60" angle="90.00" type="EBUS" speed="0.00" pos="193.74" lane="e1to2_0" slope="0.00"/>
    </timestep>
    <timestep time="5.50">
        <vehicle id="d1" x="-1.00" y="-1.60" angle="90.00" type="EBUS2" speed="0.00" pos="199.00" lane="e1to2_0" slope="0.00"/>
        <vehicle id="o1" x="-6.26" y="-1.60" angle="90.00" type="EBUS" speed="0.00" pos="193.74" lane="e1to2_0" slope="0.00"/>
    </timestep>
    <timestep time="5.60">
        <vehicle id="d1" x="-1.00" y="-1.60" angle="90.00" type="EBUS2" speed="0.00" pos="199.00" lane="e1to2_0" slope="0.00"/>
        <vehicle id="o1" x="-6.26" y="-1.60" angle="90.00" type="EBUS" speed="0.00" pos="193.74" lane="e1to2_0" slope="0.00"/>
    </timestep>
    <timestep time="5.70">
        <vehicle id="d1" x="-1.00" y="-1.60" angle="90.00" type="EBUS2" speed="0.00" pos="199.00" lane="e1to2_0" slope="0.00"/>
        <vehicle id="o1" x="-6.26" y="-1.60" angle="90.00" type="EBUS" speed="0.00" pos="193.74" lane="e1to2_0" slope="0.00"/>
    </timestep>
    <timestep time="5.80">
        <vehicle id="d1" x="-1.00" y="-1.60" angle="90.00" type="EBUS2" speed="0.00" pos="199.00" lane="e1to2_0" slope="0.00"/>
        <vehicle id="o1" x="-6.26" y="-1.60" angle="90.00" type="EBUS" speed="0.00" pos="193.74" lane="e1to2_0" slope="0.00"/>
    </timestep>
    <timestep time="5.90">
        <vehicle id="d1" x="-1.00" y="-1.60" angle="90.00" type="EBUS2" speed="0.00" pos="199.00" lane="e1to2_0" slope="0.00"/>
        <vehicle id="o1" x="-6.26" y="-1.60" angle="90.00" type="EBUS" speed="0.00" pos="193.74" lane="e1to2_0" slope="0.00"/>
    </timestep>
    <timestep time="6.00">
        <vehicle id="d1" x="-1.00" y="-1.60" angle="90.00" type="EBUS2" speed="0.00" pos="199.00" lane="e1to2_0" slope="0.00"/>
        <vehicle id="o1" x="-6.26" y="-1.60" angle="90.00" type="EBUS" speed="0.00" pos="193.74" lane="e1to2_0" slope="0.00"/>
    </timestep>
    <timestep time="6.10">
        <vehicle id="d1" x="-1.00" y="-1.60" angle="90.00" type="EBUS2" speed="0.00" pos="199.00" lane="e1to2_0" slope="0.00"/>
        <vehicle id="o1" x="-6.26" y="-1.60" angle="90.00" type="EBUS" speed="0.00" pos="193.74" lane="e1to2_0" slope="0.00"/>
    </timestep>
    <timestep time="6.20">
        <vehicle id="d1" x="-1.00" y="-1.60" angle="90.00" type="EBUS2" speed="0.00" pos="199.00" lane="e1to2_0" slope="0.00"/>
        <vehicle id="o1" x="-6.26" y="-1.60" angle="90.00" type="EBUS" speed="0.00" pos="193.74" lane="e1to2_0" slope="0.00"/>
    </timestep>
    <timestep time="6.30">
        <vehicle id="d1" x="-1.00" y="-1.60" angle="90.00" type="EBUS2" speed="0.00" pos="199.00" lane="e1to2_0" slope="0.00"/>
        <vehicle id="o1" x="-6.26" y="-1.60" angle="90.00" type="EBUS" speed="0.00" pos="193.74" lane="e1to2_0" slope="0.00"/>
    </timestep>
    <timestep time="6.40">
        <vehicle id="d1" x="-1.00" y="-1.60" angle="90.00" type="EBUS2" speed="0.00" pos="199.00" lane="e1to2_0" slope="0.00"/>
        <vehicle id="o1" x="-6.26" y="-1.60" angle="90.00" type="EBUS" speed="0.00" pos="193.74" lane="e1to2_0" slope="0.00"/>
    </timestep>
    <timestep time="6.50">
        <vehicle id="d1" x="-1.00" y="-1.60" angle="90.00" type="EBUS2" speed="0.00" pos="199.00" lane="e1to2_0" slope="0.00"/>
        <vehicle id="o1" x="-6.26" y="-1.60" angle="90.00" type="EBUS" speed="0.00" pos="193.74" lane="e1to2_0" slope="0.00"/>
    </timestep>
    <timestep time="6.60">
        <vehicle id="d1" x="-1.00" y="-1.60" angle="90.00" type="EBUS2" speed="0.00" pos="199.00" lane="e1to2_0" slope="0.00"/>
        <vehicle id="o1" x="-6.26" y="-1.60" angle="90.00" type="EBUS" speed="0.00" pos="193.74" lane="e1to2_0" slope="0.00"/>
    </timestep>
    <timestep time="6.70">
        <vehicle id="d1" x="-1.00" y="-1.60" angle="90.00" type="EBUS2" speed="0.00" pos="199.00" lane="e1to2_0" slope="0.00"/>
        <vehicle id="o1" x="-6.26" y="-1.60" angle="90.00" type="EBUS" speed="0.00" pos="193.74" lane="e1to2_0" slope="0.00"/>
    </timestep>
    <timestep time="6.80">
        <vehicle id="d1" x="-1.00" y="-1.60" angle="90.00" type="EBUS2" speed="0.00" pos="199.00" lane="e1to2_0" slope="0.00"/>
        <vehicle id="o1" x="-6.26" y="-1.60" angle="90.00" type="EBUS" speed="0.00" pos="193.74" lane="e1to2_0" slope="0.00"/>
    </timestep>
    <timestep time="6.90">
        <vehicle id="d1" x="-1.00" y="-1.60" angle="90.00" type="EBUS2" speed="0.00" pos="199.00" lane="e1to2_0" slope="0.00"/>
        <vehicle id="o1" x="-6.26" y="-1.60" angle="90.00" type="EBUS" speed="0.00" pos="193.74" lane="e1to2_0" slope="0.00"/>
    </timestep>
    <timestep time="7.00">
        <vehicle id="d1" x="-1.00" y="-1.60" angle="90.00" type="EBUS2" speed="0.00" pos="199.00" lane="e1to2_0" slope="0.00"/>
        <vehicle id="o1" x="-6.26" y="-1.60" angle="90.00" type="EBUS" speed="0.00" pos="193.74" lane="e1to2_0" slope="0.00"/>
    </timestep>
    <timestep time="7.10">
        <vehicle id="d1" x="-1.00" y="-1.60" angle="90.00" type="EBUS2" speed="0.00" pos="199.00" lane="e1to2_0" slope="0.00"/>
        <vehicle id="o1" x="-6.26" y="-1.60" angle="90.00" type="EBUS" speed="0.00" pos="193.74" lane="e1to2_0" slope="0.00"/>
    </timestep>
    <timestep time="7.20">
        <vehicle id="d1" x="-1.00" y="-1.60" angle="90.00" type="EBUS2" speed="0.00" pos="199.00" lane="e1to2_0" slope="0.00"/>
        <vehicle id="o1" x="-6.26" y="-1.60" angle="90.00" type="EBUS" speed="0.00" pos="193.74" lane="e1to2_0" slope="0.00"/>
    </timestep>
    <timestep time="7.30">
        <vehicle id="d1" x="-1.00" y="-1.60" angle="90.00" type="EBUS2" speed="0.00" pos="199.00" lane="e1to2_0" slope="0.00"/>
        <vehicle id="o1" x="-6.26" y="-1.60" angle="90.00" type="EBUS" speed="0.00" pos="193.74" lane="e1to2_0" slope="0.00"/>
    </timestep>
    <timestep time="7.40">
        <vehicle id="d1" x="-1.00" y="-1.60" angle="90.00" type="EBUS2" speed="0.00" pos="199.00" lane="e1to2_0" slope="0.00"/>
        <vehicle id="o1" x="-6.26" y="-1.60" angle="90.00" type="EBUS" speed="0.00" pos="193.74" lane="e1to2_0" slope="0.00"/>
    </timestep>
    <timestep time="7.50">
        <vehicle id="d1" x="-1.00" y="-1.60" angle="90.00" type="EBUS2" speed="0.00" pos="199.00" lane="e1to2_0" slope="0.00"/>
        <vehicle id="o1" x="-6.26" y="-1.60" angle="90.00" type="EBUS" speed="0.00" pos="193.74" lane="e1to2_0" slope="0.00"/>
    </timestep>
    <timestep time="7.60">
        <vehicle id="d1" x="-1.00" y="-1.60" angle="90.00" type="EBUS2" speed="0.00" pos="199.00" lane="e1to2_0" slope="0.00"/>
        <vehicle id="o1" x="-6.26" y="-1.60" angle="90.00" type="EBUS" speed="0.00" pos="193.74" lane="e1to2_0" slope="0.00"/>
    </timestep>
    <timestep time="7.70">
        <vehicle id="d1" x="-1.00" y="-1.60" angle="90.00" type="EBUS2" speed="0.00" pos="199.00" lane="e1to2_0" slope="0.00"/>
        <vehicle id="o1" x="-6.26" y="-1.60" angle="90.00" type="EBUS" speed="0.00" pos="193.74" lane="e1to2_0" slope="0.00"/>
    </timestep>
    <timestep time="7.80">
        <vehicle id="d1" x="-1.00" y="-1.60" angle="90.00" type="EBUS2" speed="0.00" pos="199.00" lane="e1to2_0" slope="0.00"/>
        <vehicle id="o1" x="-6.26" y="-1.60" angle="90.00" type="EBUS" speed="0.00" pos="193.74" lane="e1to2_0" slope="0.00"/>
    </timestep>
    <timestep time="7.90">
        <vehicle id="d1" x="-1.00" y="-1.60" angle="90.00" type="EBUS2" speed="0.00" pos="199.00" lane="e1to2_0" slope="0.00"/>
        <vehicle id="o1" x="-6.26" y="-1.60" angle="90.00" type="EBUS" speed="0.00" pos="193.74" lane="e1to2_0" slope="0.00"/>
    </timestep>
    <timestep time="8.00">
        <vehicle id="d1" x="-1.00" y="-1.60" angle="90.00" type="EBUS2" speed="0.00" pos="199.00" lane="e1to2_0" slope="0.00"/>
        <vehicle id="o1" x="-6.26" y="-1.60" angle="90.00" type="EBUS" speed="0.00" pos="193.74" lane="e1to2_0" slope="0.00"/>
    </timestep>
    <timestep time="8.10">
        <vehicle id="d1" x="-1.00" y="-1.60" angle="90.00" type="EBUS2" speed="0.00" pos="199.00" lane="e1to2_0" slope="0.00"/>
        <vehicle id="o1" x="-6.26" y="-1.60" angle="90.00" type="EBUS" speed="0.00" pos="193.74" lane="e1to2_0" slope="0.00"/>
    </timestep>
    <timestep time="8.20">
        <vehicle id="d1" x="-1.00" y="-1.60" angle="90.00" type="EBUS2" speed="0.00" pos="199.00" lane="e1to2_0" slope="0.00"/>
        <vehicle id="o1" x="-6.26" y="-1.60" angle="90.00" type="EBUS" speed="0.00" pos="193.74" lane="e1to2_0" slope="0.00"/>
    </timestep>
    <timestep time="8.30">
        <vehicle id="d1" x="-1.00" y="-1.60" angle="90.00" type="EBUS2" speed="0.00" pos="199.00" lane="e1to2_0" slope="0.00"/>
        <vehicle id="o1" x="-6.26" y="-1.60" angle="90.00" type="EBUS" speed="0.00" pos="193.74" lane="e1to2_0" slope="0.00"/>
    </timestep>
    <timestep time="8.40">
        <vehicle id="d1" x="-1.00" y="-1.60" angle="90.00" type="EBUS2" speed="0.00" pos="199.00" lane="e1to2_0" slope="0.00"/>
        <vehicle id="o1" x="-6.26" y="-1.60" angle="90.00" type="EBUS" speed="0.00" pos="193.74" lane="e1to2_0" slope="0.00"/>
    </timestep>
    <timestep time="8.50">
        <vehicle id="d1" x="-1.00" y="-1.60" angle="90.00" type="EBUS2" speed="0.00" pos="199.00" lane="e1to2_0" slope="0.00"/>
        <vehicle id="o1" x="-6.26" y="-1.60" angle="90.00" type="EBUS" speed="0.00" pos="193.74" lane="e1to2_0" slope="0.00"/>
    </timestep>
    <timestep time="8.60">
        <vehicle id="d1" x="-1.00" y="-1.60" angle="90.00" type="EBUS2" speed="0.00" pos="199.00" lane="e1to2_0" slope="0.00"/>
        <vehicle id="o1" x="-6.26" y="-1.60" angle="90.00" type="EBUS" speed="0.00" pos="193.74" lane="e1to2_0" slope="0.00"/>
    </timestep>
    <timestep time="8.70">
        <vehicle id="d1" x="-1.00" y="-1.60" angle="90.00" type="EBUS2" speed="0.00" pos="199.00" lane="e1to2_0" slope="0.00"/>
        <vehicle id="o1" x="-6.26" y="-1.60" angle="90.00" type="EBUS" speed="0.00" pos="193.74" lane="e1to2_0" slope="0.00"/>
    </timestep>
    <timestep time="8.80">
        <vehicle id="d1" x="-1.00" y="-1.60" angle="90.00" type="EBUS2" speed="0.00" pos="199.00" lane="e1to2_0" slope="0.00"/>
        <vehicle id="o1" x="-6.26" y="-1.60" angle="90.00" type="EBUS" speed="0.00" pos="193.74" lane="e1to2_0" slope="0.00"/>
    </timestep>
    <timestep time="8.90">
        <vehicle id="d1" x="-1.00" y="-1.60" angle="90.00" type="EBUS2" speed="0.00" pos="199.00" lane="e1to2_0" slope="0.00"/>
        <vehicle id="o1" x="-6.26" y="-1.60" angle="90.00" type="EBUS" speed="0.00" pos="193.74" lane="e1to2_0" slope="0.00"/>
    </timestep>
    <timestep time="9.00">
        <vehicle id="d1" x="-1.00" y="-1.60" angle="90.00" type="EBUS2" speed="0.00" pos="199.00" lane="e1to2_0" slope="0.00"/>
        <vehicle id="o1" x="-6.26" y="-1.60" angle="90.00" type="EBUS" speed="0.00" pos="193.74" lane="e1to2_0" slope="0.00"/>
    </timestep>
    <timestep time="9.10">
        <vehicle id="d1" x="-1.00" y="-1.60" angle="90.00" type="EBUS2" speed="0.00" pos="199.00" lane="e1to2_0" slope="0.00"/>
        <vehicle id="o1" x="-6.26" y="-1.60" angle="90.00" type="EBUS" speed="0.00" pos="193.74" lane="e1to2_0" slope="0.00"/>
    </timestep>
    <timestep time="9.20">
        <vehicle id="d1" x="-1.00" y="-1.60" angle="90.00" type="EBUS2" speed="0.00" pos="199.00" lane="e1to2_0" slope="0.00"/>
        <vehicle id="o1" x="-6.26" y="-1.60" angle="90.00" type="EBUS" speed="0.00" pos="193.74" lane="e1to2_0" slope="0.00"/>
    </timestep>
    <timestep time="9.30">
        <vehicle id="d1" x="-1.00" y="-1.60" angle="90.00" type="EBUS2" speed="0.00" pos="199.00" lane="e1to2_0" slope="0.00"/>
        <vehicle id="o1" x="-6.26" y="-1.60" angle="90.00" type="EBUS" speed="0.00" pos="193.74" lane="e1to2_0" slope="0.00"/>
    </timestep>
    <timestep time="9.40">
        <vehicle id="d1" x="-1.00" y="-1.60" angle="90.00" type="EBUS2" speed="0.00" pos="199.00" lane="e1to2_0" slope="0.00"/>
        <vehicle id="o1" x="-6.26" y="-1.60" angle="90.00" type="EBUS" speed="0.00" pos="193.74" lane="e1to2_0" slope="0.00"/>
    </timestep>
    <timestep time="9.50">
        <vehicle id="d1" x="-1.00" y="-1.60" angle="90.00" type="EBUS2" speed="0.00" pos="199.00" lane="e1to2_0" slope="0.00"/>
        <vehicle id="o1" x="-6.26" y="-1.60" angle="90.00" type="EBUS" speed="0.00" pos="193.74" lane="e1to2_0" slope="0.00"/>
    </timestep>
    <timestep time="9.60">
        <vehicle id="d1" x="-1.00" y="-1.60" angle="90.00" type="EBUS2" speed="0.00" pos="199.00" lane="e1to2_0" slope="0.00"/>
        <vehicle id="o1" x="-6.26" y="-1.60" angle="90.00" type="EBUS" speed="0.00" pos="193.74" lane="e1to2_0" slope="0.00"/>
    </timestep>
    <timestep time="9.70">
        <vehicle id="d1" x="-1.00" y="-1.60" angle="90.00" type="EBUS2" speed="0.00" pos="199.00" lane="e1to2_0" slope="0.00"/>
        <vehicle id="o1" x="-6.26" y="-1.60" angle="90.00" type="EBUS" speed="0.00" pos="193.74" lane="e1to2_0" slope="0.00"/>