<?xml version="1.0" encoding="UTF-8"?>

<!-- generated on 2023-01-27 12:11:26 by Eclipse SUMO libsumo Version v1_15_0+0841-ec7ac00463d
<configuration xmlns:xsi="http://www.w3.org/2001/XMLSchema-instance" xsi:noNamespaceSchemaLocation="http://sumo.dlr.de/xsd/libsumoConfiguration.xsd">

    <input>
        <net-file value="/home/liuli/SUMONBDT/sumoCfgs1/my1Lane1TLS.net.xml"/>
        <route-files value="/home/liuli/SUMONBDT/sumoCfgs1/m1Lane1Tls.rou.xml"/>
    </input>

    <output>
        <fcd-output value="/home/liuli/SUMONBDT/sumoCfgs1/fcd-output.xml"/>
        <full-output value="/home/liuli/SUMONBDT/sumoCfgs1/full-output.xml"/>
        <summary-output value="/home/liuli/SUMONBDT/sumoCfgs1/summary.xml"/>
    </output>

    <time>
        <begin value="0"/>
        <end value="50"/>
        <step-length value="0.1"/>
    </time>

    <processing>
        <ignore-route-errors value="true"/>
    </processing>

</configuration>
-->

<fcd-export xmlns:xsi="http://www.w3.org/2001/XMLSchema-instance" xsi:noNamespaceSchemaLocation="http://sumo.dlr.de/xsd/fcd_file.xsd">
    <timestep time="0.00"/>
    <timestep time="0.10">
        <vehicle id="d1" x="-0.96" y="-1.60" angle="90.00" type="EBUS2" speed="0.00" pos="199.04" lane="e1to2_0" slope="0.00"/>
        <vehicle id="d2" x="-6.48" y="-1.60" angle="90.00" type="EBUS2" speed="0.03" pos="193.52" lane="e1to2_0" slope="0.00"/>
        <vehicle id="o1" x="-31.37" y="-1.60" angle="90.00" type="EBUS" speed="13.34" pos="168.63" lane="e1to2_0" slope="0.00"/>
    </timestep>
    <timestep time="0.20">
        <vehicle id="d1" x="-0.96" y="-1.60" angle="90.00" type="EBUS2" speed="0.00" pos="199.04" lane="e1to2_0" slope="0.00"/>
        <vehicle id="d2" x="-6.48" y="-1.60" angle="90.00" type="EBUS2" speed="0.05" pos="193.52" lane="e1to2_0" slope="0.00"/>
        <vehicle id="o1" x="-30.04" y="-1.60" angle="90.00" type="EBUS" speed="13.34" pos="169.96" lane="e1to2_0" slope="0.00"/>
    </timestep>
    <timestep time="0.30">
        <vehicle id="d1" x="-0.96" y="-1.60" angle="90.00" type="EBUS2" speed="0.00" pos="199.04" lane="e1to2_0" slope="0.00"/>
        <vehicle id="d2" x="-6.47" y="-1.60" angle="90.00" type="EBUS2" speed="0.04" pos="193.53" lane="e1to2_0" slope="0.00"/>
        <vehicle id="o1" x="-28.70" y="-1.60" angle="90.00" type="EBUS" speed="13.34" pos="171.30" lane="e1to2_0" slope="0.00"/>
    </timestep>
    <timestep time="0.40">
        <vehicle id="d1" x="-0.96" y="-1.60" angle="90.00" type="EBUS2" speed="0.00" pos="199.04" lane="e1to2_0" slope="0.00"/>
        <vehicle id="d2" x="-6.47" y="-1.60" angle="90.00" type="EBUS2" speed="0.03" pos="193.53" lane="e1to2_0" slope="0.00"/>
        <vehicle id="o1" x="-27.37" y="-1.60" angle="90.00" type="EBUS" speed="13.34" pos="172.63" lane="e1to2_0" slope="0.00"/>
    </timestep>
    <timestep time="0.50">
        <vehicle id="d1" x="-0.96" y="-1.60" angle="90.00" type="EBUS2" speed="0.00" pos="199.04" lane="e1to2_0" slope="0.00"/>
        <vehicle id="d2" x="-6.47" y="-1.60" angle="90.00" type="EBUS2" speed="0.02" pos="193.53" lane="e1to2_0" slope="0.00"/>
        <vehicle id="o1" x="-26.03" y="-1.60" angle="90.00" type="EBUS" speed="13.34" pos="173.97" lane="e1to2_0" slope="0.00"/>
    </timestep>
    <timestep time="0.60">
        <vehicle id="d1" x="-0.96" y="-1.60" angle="90.00" type="EBUS2" speed="0.00" pos="199.04" lane="e1to2_0" slope="0.00"/>
        <vehicle id="d2" x="-6.47" y="-1.60" angle="90.00" type="EBUS2" speed="0.02" pos="193.53" lane="e1to2_0" slope="0.00"/>
        <vehicle id="o1" x="-24.70" y="-1.60" angle="90.00" type="EBUS" speed="13.34" pos="175.30" lane="e1to2_0" slope="0.00"/>
    </timestep>
    <timestep time="0.70">
        <vehicle id="d1" x="-0.96" y="-1.60" angle="90.00" type="EBUS2" speed="0.00" pos="199.04" lane="e1to2_0" slope="0.00"/>
        <vehicle id="d2" x="-6.46" y="-1.60" angle="90.00" type="EBUS2" speed="0.01" pos="193.54" lane="e1to2_0" slope="0.00"/>
        <vehicle id="o1" x="-23.40" y="-1.60" angle="90.00" type="EBUS" speed="13.04" pos="176.60" lane="e1to2_0" slope="0.00"/>
    </timestep>
    <timestep time="0.80">
        <vehicle id="d1" x="-0.96" y="-1.60" angle="90.00" type="EBUS2" speed="0.00" pos="199.04" lane="e1to2_0" slope="0.00"/>
        <vehicle id="d2" x="-6.46" y="-1.60" angle="90.00" type="EBUS2" speed="0.01" pos="193.54" lane="e1to2_0" slope="0.00"/>
        <vehicle id="o1" x="-22.17" y="-1.60" angle="90.00" type="EBUS" speed="12.25" pos="177.83" lane="e1to2_0" slope="0.00"/>
    </timestep>
    <timestep time="0.90">
        <vehicle id="d1" x="-0.96" y="-1.60" angle="90.00" type="EBUS2" speed="0.00" pos="199.04" lane="e1to2_0" slope="0.00"/>
        <vehicle id="d2" x="-6.46" y="-1.60" angle="90.00" type="EBUS2" speed="0.01" pos="193.54" lane="e1to2_0" slope="0.00"/>
        <vehicle id="o1" x="-21.02" y="-1.60" angle="90.00" type="EBUS" speed="11.47" pos="178.98" lane="e1to2_0" slope="0.00"/>
    </timestep>
    <timestep time="1.00">
        <vehicle id="d1" x="-0.96" y="-1.60" angle="90.00" type="EBUS2" speed="0.00" pos="199.04" lane="e1to2_0" slope="0.00"/>
        <vehicle id="d2" x="-6.46" y="-1.60" angle="90.00" type="EBUS2" speed="0.00" pos="193.54" lane="e1to2_0" slope="0.00"/>
        <vehicle id="o1" x="-19.95" y="-1.60" angle="90.00" type="EBUS" speed="10.70" pos="180.05" lane="e1to2_0" slope="0.00"/>
    </timestep>
    <timestep time="1.10">
        <vehicle id="d1" x="-0.96" y="-1.60" angle="90.00" type="EBUS2" speed="0.00" pos="199.04" lane="e1to2_0" slope="0.00"/>
        <vehicle id="d2" x="-6.46" y="-1.60" angle="90.00" type="EBUS2" speed="0.00" pos="193.54" lane="e1to2_0" slope="0.00"/>
        <vehicle id="o1" x="-18.96" y="-1.60" angle="90.00" type="EBUS" speed="9.94" pos="181.04" lane="e1to2_0" slope="0.00"/>
    </timestep>
    <timestep time="1.20">
        <vehicle id="d1" x="-0.96" y="-1.60" angle="90.00" type="EBUS2" speed="0.00" pos="199.04" lane="e1to2_0" slope="0.00"/>
        <vehicle id="d2" x="-6.46" y="-1.60" angle="90.00" type="EBUS2" speed="0.00" pos="193.54" lane="e1to2_0" slope="0.00"/>
        <vehicle id="o1" x="-18.04" y="-1.60" angle="90.00" type="EBUS" speed="9.18" pos="181.96" lane="e1to2_0" slope="0.00"/>
    </timestep>
    <timestep time="1.30">
        <vehicle id="d1" x="-0.96" y="-1.60" angle="90.00" type="EBUS2" speed="0.00" pos="199.04" lane="e1to2_0" slope="0.00"/>
        <vehicle id="d2" x="-6.46" y="-1.60" angle="90.00" type="EBUS2" speed="0.00" pos="193.54" lane="e1to2_0" slope="0.00"/>
        <vehicle id="o1" x="-17.20" y="-1.60" angle="90.00" type="EBUS" speed="8.43" pos="182.80" lane="e1to2_0" slope="0.00"/>
    </timestep>
    <timestep time="1.40">
        <vehicle id="d1" x="-0.96" y="-1.60" angle="90.00" type="EBUS2" speed="0.00" pos="199.04" lane="e1to2_0" slope="0.00"/>
        <vehicle id="d2" x="-6.46" y="-1.60" angle="90.00" type="EBUS2" speed="0.00" pos="193.54" lane="e1to2_0" slope="0.00"/>
        <vehicle id="o1" x="-16.43" y="-1.60" angle="90.00" type="EBUS" speed="7.69" pos="183.57" lane="e1to2_0" slope="0.00"/>
    </timestep>
    <timestep time="1.50">
        <vehicle id="d1" x="-0.96" y="-1.60" angle="90.00" type="EBUS2" speed="0.00" pos="199.04" lane="e1to2_0" slope="0.00"/>
        <vehicle id="d2" x="-6.46" y="-1.60" angle="90.00" type="EBUS2" speed="0.00" pos="193.54" lane="e1to2_0" slope="0.00"/>
        <vehicle id="o1" x="-15.73" y="-1.60" angle="90.00" type="EBUS" speed="6.98" pos="184.27" lane="e1to2_0" slope="0.00"/>
    </timestep>
    <timestep time="1.60">
        <vehicle id="d1" x="-0.96" y="-1.60" angle="90.00" type="EBUS2" speed="0.00" pos="199.04" lane="e1to2_0" slope="0.00"/>
        <vehicle id="d2" x="-6.46" y="-1.60" angle="90.00" type="EBUS2" speed="0.00" pos="193.54" lane="e1to2_0" slope="0.00"/>
        <vehicle id="o1" x="-15.10" y="-1.60" angle="90.00" type="EBUS" speed="6.28" pos="184.90" lane="e1to2_0" slope="0.00"/>
    </timestep>
    <timestep time="1.70">
        <vehicle id="d1" x="-0.96" y="-1.60" angle="90.00" type="EBUS2" speed="0.00" pos="199.04" lane="e1to2_0" slope="0.00"/>
        <vehicle id="d2" x="-6.46" y="-1.60" angle="90.00" type="EBUS2" speed="0.00" pos="193.54" lane="e1to2_0" slope="0.00"/>
        <vehicle id="o1" x="-14.55" y="-1.60" angle="90.00" type="EBUS" speed="5.58" pos="185.45" lane="e1to2_0" slope="0.00"/>
    </timestep>
    <timestep time="1.80">
        <vehicle id="d1" x="-0.96" y="-1.60" angle="90.00" type="EBUS2" speed="0.00" pos="199.04" lane="e1to2_0" slope="0.00"/>
        <vehicle id="d2" x="-6.46" y="-1.60" angle="90.00" type="EBUS2" speed="0.00" pos="193.54" lane="e1to2_0" slope="0.00"/>
        <vehicle id="o1" x="-14.06" y="-1.60" angle="90.00" type="EBUS" speed="4.91" pos="185.94" lane="e1to2_0" slope="0.00"/>
    </timestep>
    <timestep time="1.90">
        <vehicle id="d1" x="-0.96" y="-1.60" angle="90.00" type="EBUS2" speed="0.00" pos="199.04" lane="e1to2_0" slope="0.00"/>
        <vehicle id="d2" x="-6.46" y="-1.60" angle="90.00" type="EBUS2" speed="0.00" pos="193.54" lane="e1to2_0" slope="0.00"/>
        <vehicle id="o1" x="-13.63" y="-1.60" angle="90.00" type="EBUS" speed="4.27" pos="186.37" lane="e1to2_0" slope="0.00"/>
    </timestep>
    <timestep time="2.00">
        <vehicle id="d1" x="-0.96" y="-1.60" angle="90.00" type="EBUS2" speed="0.00" pos="199.04" lane="e1to2_0" slope="0.00"/>
        <vehicle id="d2" x="-6.46" y="-1.60" angle="90.00" type="EBUS2" speed="0.00" pos="193.54" lane="e1to2_0" slope="0.00"/>
        <vehicle id="o1" x="-13.26" y="-1.60" angle="90.00" type="EBUS" speed="3.66" pos="186.74" lane="e1to2_0" slope="0.00"/>
    </timestep>
    <timestep time="2.10">
        <vehicle id="d1" x="-0.96" y="-1.60" angle="90.00" type="EBUS2" speed="0.00" pos="199.04" lane="e1to2_0" slope="0.00"/>
        <vehicle id="d2" x="-6.46" y="-1.60" angle="90.00" type="EBUS2" speed="0.00" pos="193.54" lane="e1to2_0" slope="0.00"/>
        <vehicle id="o1" x="-12.96" y="-1.60" angle="90.00" type="EBUS" speed="3.06" pos="187.04" lane="e1to2_0" slope="0.00"/>
    </timestep>
    <timestep time="2.20">
        <vehicle id="d1" x="-0.96" y="-1.60" angle="90.00" type="EBUS2" speed="0.00" pos="199.04" lane="e1to2_0" slope="0.00"/>
        <vehicle id="d2" x="-6.46" y="-1.60" angle="90.00" type="EBUS2" speed="0.00" pos="193.54" lane="e1to2_0" slope="0.00"/>
        <vehicle id="o1" x="-12.70" y="-1.60" angle="90.00" type="EBUS" speed="2.52" pos="187.30" lane="e1to2_0" slope="0.00"/>
    </timestep>
    <timestep time="2.30">
        <vehicle id="d1" x="-0.96" y="-1.60" angle="90.00" type="EBUS2" speed="0.00" pos="199.04" lane="e1to2_0" slope="0.00"/>
        <vehicle id="d2" x="-6.46" y="-1.60" angle="90.00" type="EBUS2" speed="0.00" pos="193.54" lane="e1to2_0" slope="0.00"/>
        <vehicle id="o1" x="-12.50" y="-1.60" angle="90.00" type="EBUS" speed="2.02" pos="187.50" lane="e1to2_0" slope="0.00"/>
    </timestep>
    <timestep time="2.40">
        <vehicle id="d1" x="-0.96" y="-1.60" angle="90.00" type="EBUS2" speed="0.00" pos="199.04" lane="e1to2_0" slope="0.00"/>
        <vehicle id="d2" x="-6.46" y="-1.60" angle="90.00" type="EBUS2" speed="0.00" pos="193.54" lane="e1to2_0" slope="0.00"/>
        <vehicle id="o1" x="-12.35" y="-1.60" angle="90.00" type="EBUS" speed="1.57" pos="187.65" lane="e1to2_0" slope="0.00"/>
    </timestep>
    <timestep time="2.50">
        <vehicle id="d1" x="-0.96" y="-1.60" angle="90.00" type="EBUS2" speed="0.00" pos="199.04" lane="e1to2_0" slope="0.00"/>
        <vehicle id="d2" x="-6.46" y="-1.60" angle="90.00" type="EBUS2" speed="0.00" pos="193.54" lane="e1to2_0" slope="0.00"/>
        <vehicle id="o1" x="-12.23" y="-1.60" angle="90.00" type="EBUS" speed="1.18" pos="187.77" lane="e1to2_0" slope="0.00"/>
    </timestep>
    <timestep time="2.60">
        <vehicle id="d1" x="-0.96" y="-1.60" angle="90.00" type="EBUS2" speed="0.00" pos="199.04" lane="e1to2_0" slope="0.00"/>
        <vehicle id="d2" x="-6.46" y="-1.60" angle="90.00" type="EBUS2" speed="0.00" pos="193.54" lane="e1to2_0" slope="0.00"/>
        <vehicle id="o1" x="-12.14" y="-1.60" angle="90.00" type="EBUS" speed="0.88" pos="187.86" lane="e1to2_0" slope="0.00"/>
    </timestep>
    <timestep time="2.70">
        <vehicle id="d1" x="-0.96" y="-1.60" angle="90.00" type="EBUS2" speed="0.00" pos="199.04" lane="e1to2_0" slope="0.00"/>
        <vehicle id="d2" x="-6.46" y="-1.60" angle="90.00" type="EBUS2" speed="0.00" pos="193.54" lane="e1to2_0" slope="0.00"/>
        <vehicle id="o1" x="-12.08" y="-1.60" angle="90.00" type="EBUS" speed="0.59" pos="187.92" lane="e1to2_0" slope="0.00"/>
    </timestep>
    <timestep time="2.80">
        <vehicle id="d1" x="-0.96" y="-1.60" angle="90.00" type="EBUS2" speed="0.00" pos="199.04" lane="e1to2_0" slope="0.00"/>
        <vehicle id="d2" x="-6.46" y="-1.60" angle="90.00" type="EBUS2" speed="0.00" pos="193.54" lane="e1to2_0" slope="0.00"/>
        <vehicle id="o1" x="-12.04" y="-1.60" angle="90.00" type="EBUS" speed="0.39" pos="187.96" lane="e1to2_0" slope="0.00"/>
    </timestep>
    <timestep time="2.90">
        <vehicle id="d1" x="-0.96" y="-1.60" angle="90.00" type="EBUS2" speed="0.00" pos="199.04" lane="e1to2_0" slope="0.00"/>
        <vehicle id="d2" x="-6.46" y="-1.60" angle="90.00" type="EBUS2" speed="0.00" pos="193.54" lane="e1to2_0" slope="0.00"/>
        <vehicle id="o1" x="-12.02" y="-1.60" angle="90.00" type="EBUS" speed="0.26" pos="187.98" lane="e1to2_0" slope="0.00"/>
    </timestep>
    <timestep time="3.00">
        <vehicle id="d1" x="-0.96" y="-1.60" angle="90.00" type="EBUS2" speed="0.00" pos="199.04" lane="e1to2_0" slope="0.00"/>
        <vehicle id="d2" x="-6.46" y="-1.60" angle="90.00" type="EBUS2" speed="0.00" pos="193.54" lane="e1to2_0" slope="0.00"/>
        <vehicle id="o1" x="-12.00" y="-1.60" angle="90.00" type="EBUS" speed="0.18" pos="188.00" lane="e1to2_0" slope="0.00"/>
    </timestep>
    <timestep time="3.10">
        <vehicle id="d1" x="-0.96" y="-1.60" angle="90.00" type="EBUS2" speed="0.00" pos="199.04" lane="e1to2_0" slope="0.00"/>
        <vehicle id="d2" x="-6.46" y="-1.60" angle="90.00" type="EBUS2" speed="0.00" pos="193.54" lane="e1to2_0" slope="0.00"/>
        <vehicle id="o1" x="-11.99" y="-1.60" angle="90.00" type="EBUS" speed="0.12" pos="188.01" lane="e1to2_0" slope="0.00"/>
    </timestep>
    <timestep time="3.20">
        <vehicle id="d1" x="-0.96" y="-1.60" angle="90.00" type="EBUS2" speed="0.00" pos="199.04" lane="e1to2_0" slope="0.00"/>
        <vehicle id="d2" x="-6.46" y="-1.60" angle="90.00" type="EBUS2" speed="0.00" pos="193.54" lane="e1to2_0" slope="0.00"/>
        <vehicle id="o1" x="-11.98" y="-1.60" angle="90.00" type="EBUS" speed="0.08" pos="188.02" lane="e1to2_0" slope="0.00"/>
    </timestep>
    <timestep time="3.30">
        <vehicle id="d1" x="-0.96" y="-1.60" angle="90.00" type="EBUS2" speed="0.00" pos="199.04" lane="e1to2_0" slope="0.00"/>
        <vehicle id="d2" x="-6.46" y="-1.60" angle="90.00" type="EBUS2" speed="0.00" pos="193.54" lane="e1to2_0" slope="0.00"/>
        <vehicle id="o1" x="-11.97" y="-1.60" angle="90.00" type="EBUS" speed="0.05" pos="188.03" lane="e1to2_0" slope="0.00"/>
    </timestep>
    <timestep time="3.40">
        <vehicle id="d1" x="-0.96" y="-1.60" angle="90.00" type="EBUS2" speed="0.00" pos="199.04" lane="e1to2_0" slope="0.00"/>
        <vehicle id="d2" x="-6.46" y="-1.60" angle="90.00" type="EBUS2" speed="0.00" pos="193.54" lane="e1to2_0" slope="0.00"/>
        <vehicle id="o1" x="-11.97" y="-1.60" angle="90.00" type="EBUS" speed="0.04" pos="188.03" lane="e1to2_0" slope="0.00"/>
    </timestep>
    <timestep time="3.50">
        <vehicle id="d1" x="-0.96" y="-1.60" angle="90.00" type="EBUS2" speed="0.00" pos="199.04" lane="e1to2_0" slope="0.00"/>
        <vehicle id="d2" x="-6.46" y="-1.60" angle="90.00" type="EBUS2" speed="0.00" pos="193.54" lane="e1to2_0" slope="0.00"/>
        <vehicle id="o1" x="-11.97" y="-1.60" angle="90.00" type="EBUS" speed="0.02" pos="188.03" lane="e1to2_0" slope="0.00"/>
    </timestep>
    <timestep time="3.60">
        <vehicle id="d1" x="-0.96" y="-1.60" angle="90.00" type="EBUS2" speed="0.00" pos="199.04" lane="e1to2_0" slope="0.00"/>
        <vehicle id="d2" x="-6.46" y="-1.60" angle="90.00" type="EBUS2" speed="0.00" pos="193.54" lane="e1to2_0" slope="0.00"/>
        <vehicle id="o1" x="-11.97" y="-1.60" angle="90.00" type="EBUS" speed="0.02" pos="188.03" lane="e1to2_0" slope="0.00"/>
    </timestep>
    <timestep time="3.70">
        <vehicle id="d1" x="-0.96" y="-1.60" angle="90.00" type="EBUS2" speed="0.00" pos="199.04" lane="e1to2_0" slope="0.00"/>
        <vehicle id="d2" x="-6.46" y="-1.60" angle="90.00" type="EBUS2" speed="0.00" pos="193.54" lane="e1to2_0" slope="0.00"/>
        <vehicle id="o1" x="-11.96" y="-1.60" angle="90.00" type="EBUS" speed="0.01" pos="188.04" lane="e1to2_0" slope="0.00"/>
    </timestep>
    <timestep time="3.80">
        <vehicle id="d1" x="-0.96" y="-1.60" angle="90.00" type="EBUS2" speed="0.00" pos="199.04" lane="e1to2_0" slope="0.00"/>
        <vehicle id="d2" x="-6.46" y="-1.60" angle="90.00" type="EBUS2" speed="0.00" pos="193.54" lane="e1to2_0" slope="0.00"/>
        <vehicle id="o1" x="-11.96" y="-1.60" angle="90.00" type="EBUS" speed="0.01" pos="188.04" lane="e1to2_0" slope="0.00"/>
    </timestep>
    <timestep time="3.90">
        <vehicle id="d1" x="-0.96" y="-1.60" angle="90.00" type="EBUS2" speed="0.00" pos="199.04" lane="e1to2_0" slope="0.00"/>
        <vehicle id="d2" x="-6.46" y="-1.60" angle="90.00" type="EBUS2" speed="0.00" pos="193.54" lane="e1to2_0" slope="0.00"/>
        <vehicle id="o1" x="-11.96" y="-1.60" angle="90.00" type="EBUS" speed="0.00" pos="188.04" lane="e1to2_0" slope="0.00"/>
    </timestep>
    <timestep time="4.00">
        <vehicle id="d1" x="-0.96" y="-1.60" angle="90.00" type="EBUS2" speed="0.00" pos="199.04" lane="e1to2_0" slope="0.00"/>
        <vehicle id="d2" x="-6.46" y="-1.60" angle="90.00" type="EBUS2" speed="0.00" pos="193.54" lane="e1to2_0" slope="0.00"/>
        <vehicle id="o1" x="-11.96" y="-1.60" angle="90.00" type="EBUS" speed="0.00" pos="188.04" lane="e1to2_0" slope="0.00"/>
    </timestep>
    <timestep time="4.10">
        <vehicle id="d1" x="-0.96" y="-1.60" angle="90.00" type="EBUS2" speed="0.00" pos="199.04" lane="e1to2_0" slope="0.00"/>
        <vehicle id="d2" x="-6.46" y="-1.60" angle="90.00" type="EBUS2" speed="0.00" pos="193.54" lane="e1to2_0" slope="0.00"/>
        <vehicle id="o1" x="-11.96" y="-1.60" angle="90.00" type="EBUS" speed="0.00" pos="188.04" lane="e1to2_0" slope="0.00"/>
    </timestep>
    <timestep time="4.20">
        <vehicle id="d1" x="-0.96" y="-1.60" angle="90.00" type="EBUS2" speed="0.00" pos="199.04" lane="e1to2_0" slope="0.00"/>
        <vehicle id="d2" x="-6.46" y="-1.60" angle="90.00" type="EBUS2" speed="0.00" pos="193.54" lane="e1to2_0" slope="0.00"/>
        <vehicle id="o1" x="-11.96" y="-1.60" angle="90.00" type="EBUS" speed="0.00" pos="188.04" lane="e1to2_0" slope="0.00"/>
    </timestep>
    <timestep time="4.30">
        <vehicle id="d1" x="-0.96" y="-1.60" angle="90.00" type="EBUS2" speed="0.00" pos="199.04" lane="e1to2_0" slope="0.00"/>
        <vehicle id="d2" x="-6.46" y="-1.60" angle="90.00" type="EBUS2" speed="0.00" pos="193.54" lane="e1to2_0" slope="0.00"/>
        <vehicle id="o1" x="-11.96" y="-1.60" angle="90.00" type="EBUS" speed="0.00" pos="188.04" lane="e1to2_0" slope="0.00"/>
    </timestep>
    <timestep time="4.40">
        <vehicle id="d1" x="-0.96" y="-1.60" angle="90.00" type="EBUS2" speed="0.00" pos="199.04" lane="e1to2_0" slope="0.00"/>
        <vehicle id="d2" x="-6.46" y="-1.60" angle="90.00" type="EBUS2" speed="0.00" pos="193.54" lane="e1to2_0" slope="0.00"/>
        <vehicle id="o1" x="-11.96" y="-1.60" angle="90.00" type="EBUS" speed="0.00" pos="188.04" lane="e1to2_0" slope="0.00"/>
    </timestep>
    <timestep time="4.50">
        <vehicle id="d1" x="-0.96" y="-1.60" angle="90.00" type="EBUS2" speed="0.00" pos="199.04" lane="e1to2_0" slope="0.00"/>
        <vehicle id="d2" x="-6.46" y="-1.60" angle="90.00" type="EBUS2" speed="0.00" pos="193.54" lane="e1to2_0" slope="0.00"/>
        <vehicle id="o1" x="-11.96" y="-1.60" angle="90.00" type="EBUS" speed="0.00" pos="188.04" lane="e1to2_0" slope="0.00"/>
    </timestep>
    <timestep time="4.60">
        <vehicle id="d1" x="-0.96" y="-1.60" angle="90.00" type="EBUS2" speed="0.00" pos="199.04" lane="e1to2_0" slope="0.00"/>
        <vehicle id="d2" x="-6.46" y="-1.60" angle="90.00" type="EBUS2" speed="0.00" pos="193.54" lane="e1to2_0" slope="0.00"/>
        <vehicle id="o1" x="-11.96" y="-1.60" angle="90.00" type="EBUS" speed="0.00" pos="188.04" lane="e1to2_0" slope="0.00"/>
    </timestep>
    <timestep time="4.70">
        <vehicle id="d1" x="-0.96" y="-1.60" angle="90.00" type="EBUS2" speed="0.00" pos="199.04" lane="e1to2_0" slope="0.00"/>
        <vehicle id="d2" x="-6.46" y="-1.60" angle="90.00" type="EBUS2" speed="0.00" pos="193.54" lane="e1to2_0" slope="0.00"/>
        <vehicle id="o1" x="-11.96" y="-1.60" angle="90.00" type="EBUS" speed="0.00" pos="188.04" lane="e1to2_0" slope="0.00"/>
    </timestep>
    <timestep time="4.80">
        <vehicle id="d1" x="-0.96" y="-1.60" angle="90.00" type="EBUS2" speed="0.00" pos="199.04" lane="e1to2_0" slope="0.00"/>
        <vehicle id="d2" x="-6.46" y="-1.60" angle="90.00" type="EBUS2" speed="0.00" pos="193.54" lane="e1to2_0" slope="0.00"/>
        <vehicle id="o1" x="-11.96" y="-1.60" angle="90.00" type="EBUS" speed="0.00" pos="188.04" lane="e1to2_0" slope="0.00"/>
    </timestep>
    <timestep time="4.90">
        <vehicle id="d1" x="-0.96" y="-1.60" angle="90.00" type="EBUS2" speed="0.00" pos="199.04" lane="e1to2_0" slope="0.00"/>
        <vehicle id="d2" x="-6.46" y="-1.60" angle="90.00" type="EBUS2" speed="0.00" pos="193.54" lane="e1to2_0" slope="0.00"/>
        <vehicle id="o1" x="-11.96" y="-1.60" angle="90.00" type="EBUS" speed="0.00" pos="188.04" lane="e1to2_0" slope="0.00"/>
    </timestep>
    <timestep time="5.00">
        <vehicle id="d1" x="-0.96" y="-1.60" angle="90.00" type="EBUS2" speed="0.00" pos="199.04" lane="e1to2_0" slope="0.00"/>
        <vehicle id="d2" x="-6.46" y="-1.60" angle="90.00" type="EBUS2" speed="0.00" pos="193.54" lane="e1to2_0" slope="0.00"/>
        <vehicle id="o1" x="-11.96" y="-1.60" angle="90.00" type="EBUS" speed="0.00" pos="188.04" lane="e1to2_0" slope="0.00"/>
    </timestep>
    <timestep time="5.10">
        <vehicle id="d1" x="-0.96" y="-1.60" angle="90.00" type="EBUS2" speed="0.00" pos="199.04" lane="e1to2_0" slope="0.00"/>
        <vehicle id="d2" x="-6.46" y="-1.60" angle="90.00" type="EBUS2" speed="0.00" pos="193.54" lane="e1to2_0" slope="0.00"/>
        <vehicle id="o1" x="-11.96" y="-1.60" angle="90.00" type="EBUS" speed="0.00" pos="188.04" lane="e1to2_0" slope="0.00"/>
    </timestep>
    <timestep time="5.20">
        <vehicle id="d1" x="-0.96" y="-1.60" angle="90.00" type="EBUS2" speed="0.00" pos="199.04" lane="e1to2_0" slope="0.00"/>
        <vehicle id="d2" x="-6.46" y="-1.60" angle="90.00" type="EBUS2" speed="0.00" pos="193.54" lane="e1to2_0" slope="0.00"/>
        <vehicle id="o1" x="-11.96" y="-1.60" angle="90.00" type="EBUS" speed="0.00" pos="188.04" lane="e1to2_0" slope="0.00"/>
    </timestep>
    <timestep time="5.30">
        <vehicle id="d1" x="-0.96" y="-1.60" angle="90.00" type="EBUS2" speed="0.00" pos="199.04" lane="e1to2_0" slope="0.00"/>
        <vehicle id="d2" x="-6.46" y="-1.60" angle="90.00" type="EBUS2" speed="0.00" pos="193.54" lane="e1to2_0" slope="0.00"/>
        <vehicle id="o1" x="-11.96" y="-1.60" angle="90.00" type="EBUS" speed="0.00" pos="188.04" lane="e1to2_0" slope="0.00"/>
    </timestep>
    <timestep time="5.40">
        <vehicle id="d1" x="-0.96" y="-1.60" angle="90.00" type="EBUS2" speed="0.00" pos="199.04" lane="e1to2_0" slope="0.00"/>
        <vehicle id="d2" x="-6.46" y="-1.60" angle="90.00" type="EBUS2" speed="0.00" pos="193.54" lane="e1to2_0" slope="0.00"/>
        <vehicle id="o1" x="-11.96" y="-1.60" angle="90.00" type="EBUS" speed="0.00" pos="188.04" lane="e1to2_0" slope="0.00"/>
    </timestep>
    <timestep time="5.50">
        <vehicle id="d1" x="-0.96" y="-1.60" angle="90.00" type="EBUS2" speed="0.00" pos="199.04" lane="e1to2_0" slope="0.00"/>
        <vehicle id="d2" x="-6.46" y="-1.60" angle="90.00" type="EBUS2" speed="0.00" pos="193.54" lane="e1to2_0" slope="0.00"/>
        <vehicle id="o1" x="-11.96" y="-1.60" angle="90.00" type="EBUS" speed="0.00" pos="188.04" lane="e1to2_0" slope="0.00"/>
    </timestep>
    <timestep time="5.60">
        <vehicle id="d1" x="-0.96" y="-1.60" angle="90.00" type="EBUS2" speed="0.00" pos="199.04" lane="e1to2_0" slope="0.00"/>
        <vehicle id="d2" x="-6.46" y="-1.60" angle="90.00" type="EBUS2" speed="0.00" pos="193.54" lane="e1to2_0" slope="0.00"/>
        <vehicle id="o1" x="-11.96" y="-1.60" angle="90.00" type="EBUS" speed="0.00" pos="188.04" lane="e1to2_0" slope="0.00"/>
    </timestep>
    <timestep time="5.70">
        <vehicle id="d1" x="-0.96" y="-1.60" angle="90.00" type="EBUS2" speed="0.00" pos="199.04" lane="e1to2_0" slope="0.00"/>
        <vehicle id="d2" x="-6.46" y="-1.60" angle="90.00" type="EBUS2" speed="0.00" pos="193.54" lane="e1to2_0" slope="0.00"/>
        <vehicle id="o1" x="-11.96" y="-1.60" angle="90.00" type="EBUS" speed="0.00" pos="188.04" lane="e1to2_0" slope="0.00"/>
    </timestep>
    <timestep time="5.80">
        <vehicle id="d1" x="-0.96" y="-1.60" angle="90.00" type="EBUS2" speed="0.00" pos="199.04" lane="e1to2_0" slope="0.00"/>
        <vehicle id="d2" x="-6.46" y="-1.60" angle="90.00" type="EBUS2" speed="0.00" pos="193.54" lane="e1to2_0" slope="0.00"/>
        <vehicle id="o1" x="-11.96" y="-1.60" angle="90.00" type="EBUS" speed="0.00" pos="188.04" lane="e1to2_0" slope="0.00"/>
    </timestep>
    <timestep time="5.90">
        <vehicle id="d1" x="-0.96" y="-1.60" angle="90.00" type="EBUS2" speed="0.00" pos="199.04" lane="e1to2_0" slope="0.00"/>
        <vehicle id="d2" x="-6.46" y="-1.60" angle="90.00" type="EBUS2" speed="0.00" pos="193.54" lane="e1to2_0" slope="0.00"/>
        <vehicle id="o1" x="-11.96" y="-1.60" angle="90.00" type="EBUS" speed="0.00" pos="188.04" lane="e1to2_0" slope="0.00"/>
    </timestep>
    <timestep time="6.00">
        <vehicle id="d1" x="-0.96" y="-1.60" angle="90.00" type="EBUS2" speed="0.00" pos="199.04" lane="e1to2_0" slope="0.00"/>
        <vehicle id="d2" x="-6.46" y="-1.60" angle="90.00" type="EBUS2" speed="0.00" pos="193.54" lane="e1to2_0" slope="0.00"/>
        <vehicle id="o1" x="-11.96" y="-1.60" angle="90.00" type="EBUS" speed="0.00" pos="188.04" lane="e1to2_0" slope="0.00"/>
    </timestep>
    <timestep time="6.10">
        <vehicle id="d1" x="-0.96" y="-1.60" angle="90.00" type="EBUS2" speed="0.00" pos="199.04" lane="e1to2_0" slope="0.00"/>
        <vehicle id="d2" x="-6.46" y="-1.60" angle="90.00" type="EBUS2" speed="0.00" pos="193.54" lane="e1to2_0" slope="0.00"/>
        <vehicle id="o1" x="-11.96" y="-1.60" angle="90.00" type="EBUS" speed="0.00" pos="188.04" lane="e1to2_0" slope="0.00"/>
    </timestep>
    <timestep time="6.20">
        <vehicle id="d1" x="-0.96" y="-1.60" angle="90.00" type="EBUS2" speed="0.00" pos="199.04" lane="e1to2_0" slope="0.00"/>
        <vehicle id="d2" x="-6.46" y="-1.60" angle="90.00" type="EBUS2" speed="0.00" pos="193.54" lane="e1to2_0" slope="0.00"/>
        <vehicle id="o1" x="-11.96" y="-1.60" angle="90.00" type="EBUS" speed="0.00" pos="188.04" lane="e1to2_0" slope="0.00"/>
    </timestep>
    <timestep time="6.30">
        <vehicle id="d1" x="-0.96" y="-1.60" angle="90.00" type="EBUS2" speed="0.00" pos="199.04" lane="e1to2_0" slope="0.00"/>
        <vehicle id="d2" x="-6.46" y="-1.60" angle="90.00" type="EBUS2" speed="0.00" pos="193.54" lane="e1to2_0" slope="0.00"/>
        <vehicle id="o1" x="-11.96" y="-1.60" angle="90.00" type="EBUS" speed="0.00" pos="188.04" lane="e1to2_0" slope="0.00"/>
    </timestep>
    <timestep time="6.40">
        <vehicle id="d1" x="-0.96" y="-1.60" angle="90.00" type="EBUS2" speed="0.00" pos="199.04" lane="e1to2_0" slope="0.00"/>
        <vehicle id="d2" x="-6.46" y="-1.60" angle="90.00" type="EBUS2" speed="0.00" pos="193.54" lane="e1to2_0" slope="0.00"/>
        <vehicle id="o1" x="-11.96" y="-1.60" angle="90.00" type="EBUS" speed="0.00" pos="188.04" lane="e1to2_0" slope="0.00"/>
    </timestep>
    <timestep time="6.50">
        <vehicle id="d1" x="-0.96" y="-1.60" angle="90.00" type="EBUS2" speed="0.00" pos="199.04" lane="e1to2_0" slope="0.00"/>
        <vehicle id="d2" x="-6.46" y="-1.60" angle="90.00" type="EBUS2" speed="0.00" pos="193.54" lane="e1to2_0" slope="0.00"/>
        <vehicle id="o1" x="-11.96" y="-1.60" angle="90.00" type="EBUS" speed="0.00" pos="188.04" lane="e1to2_0" slope="0.00"/>
    </timestep>
    <timestep time="6.60">
        <vehicle id="d1" x="-0.96" y="-1.60" angle="90.00" type="EBUS2" speed="0.00" pos="199.04" lane="e1to2_0" slope="0.00"/>
        <vehicle id="d2" x="-6.46" y="-1.60" angle="90.00" type="EBUS2" speed="0.00" pos="193.54" lane="e1to2_0" slope="0.00"/>
        <vehicle id="o1" x="-11.96" y="-1.60" angle="90.00" type="EBUS" speed="0.00" pos="188.04" lane="e1to2_0" slope="0.00"/>
    </timestep>
    <timestep time="6.70">
        <vehicle id="d1" x="-0.96" y="-1.60" angle="90.00" type="EBUS2" speed="0.00" pos="199.04" lane="e1to2_0" slope="0.00"/>
        <vehicle id="d2" x="-6.46" y="-1.60" angle="90.00" type="EBUS2" speed="0.00" pos="193.54" lane="e1to2_0" slope="0.00"/>
        <vehicle id="o1" x="-11.96" y="-1.60" angle="90.00" type="EBUS" speed="0.00" pos="188.04" lane="e1to2_0" slope="0.00"/>
    </timestep>
    <timestep time="6.80">
        <vehicle id="d1" x="-0.96" y="-1.60" angle="90.00" type="EBUS2" speed="0.00" pos="199.04" lane="e1to2_0" slope="0.00"/>