<?xml version="1.0" encoding="UTF-8"?>

<!-- generated on 2023-02-19 06:20:38 by Eclipse SUMO libsumo Version v1_15_0+0841-ec7ac00463d
<configuration xmlns:xsi="http://www.w3.org/2001/XMLSchema-instance" xsi:noNamespaceSchemaLocation="http://sumo.dlr.de/xsd/libsumoConfiguration.xsd">

    <input>
        <net-file value="/home/liuli/SUMONBDT/sumoCfgs1/my1Lane1TLS.net.xml"/>
        <route-files value="/home/liuli/SUMONBDT/sumoCfgs1/m1Lane1Tls.rou.xml"/>
    </input>

    <output>
        <fcd-output value="/home/liuli/SUMONBDT/sumoCfgs1/fcd-output.xml"/>
        <full-output value="/home/liuli/SUMONBDT/sumoCfgs1/full-output.xml"/>
        <summary-output value="/home/liuli/SUMONBDT/sumoCfgs1/summary.xml"/>
    </output>

    <time>
        <begin value="0"/>
        <end value="50"/>
        <step-length value="0.1"/>
    </time>

    <processing>
        <ignore-route-errors value="true"/>
    </processing>

</configuration>
-->

<fcd-export xmlns:xsi="http://www.w3.org/2001/XMLSchema-instance" xsi:noNamespaceSchemaLocation="http://sumo.dlr.de/xsd/fcd_file.xsd">
    <timestep time="0.00"/>
    <timestep time="0.10">
        <vehicle id="d1" x="-0.67" y="-1.60" angle="90.00" type="EBUS2" speed="0.00" pos="199.33" lane="e1to2_0" slope="0.00"/>
        <vehicle id="o1" x="-72.55" y="-1.60" angle="90.00" type="EBUS" speed="11.11" pos="127.45" lane="e1to2_0" slope="0.00"/>
    </timestep>
    <timestep time="0.20">
        <vehicle id="d1" x="-0.67" y="-1.60" angle="90.00" type="EBUS2" speed="0.00" pos="199.33" lane="e1to2_0" slope="0.00"/>
        <vehicle id="o1" x="-71.42" y="-1.60" angle="90.00" type="EBUS" speed="11.25" pos="128.58" lane="e1to2_0" slope="0.00"/>
    </timestep>
    <timestep time="0.30">
        <vehicle id="d1" x="-0.67" y="-1.60" angle="90.00" type="EBUS2" speed="0.00" pos="199.33" lane="e1to2_0" slope="0.00"/>
        <vehicle id="o1" x="-70.29" y="-1.60" angle="90.00" type="EBUS" speed="11.39" pos="129.71" lane="e1to2_0" slope="0.00"/>
    </timestep>
    <timestep time="0.40">
        <vehicle id="d1" x="-0.67" y="-1.60" angle="90.00" type="EBUS2" speed="0.00" pos="199.33" lane="e1to2_0" slope="0.00"/>
        <vehicle id="o1" x="-69.13" y="-1.60" angle="90.00" type="EBUS" speed="11.53" pos="130.87" lane="e1to2_0" slope="0.00"/>
    </timestep>
    <timestep time="0.50">
        <vehicle id="d1" x="-0.67" y="-1.60" angle="90.00" type="EBUS2" speed="0.00" pos="199.33" lane="e1to2_0" slope="0.00"/>
        <vehicle id="o1" x="-67.97" y="-1.60" angle="90.00" type="EBUS" speed="11.67" pos="132.03" lane="e1to2_0" slope="0.00"/>
    </timestep>
    <timestep time="0.60">
        <vehicle id="d1" x="-0.67" y="-1.60" angle="90.00" type="EBUS2" speed="0.00" pos="199.33" lane="e1to2_0" slope="0.00"/>
        <vehicle id="o1" x="-66.78" y="-1.60" angle="90.00" type="EBUS" speed="11.81" pos="133.22" lane="e1to2_0" slope="0.00"/>
    </timestep>
    <timestep time="0.70">
        <vehicle id="d1" x="-0.67" y="-1.60" angle="90.00" type="EBUS2" speed="0.00" pos="199.33" lane="e1to2_0" slope="0.00"/>
        <vehicle id="o1" x="-65.59" y="-1.60" angle="90.00" type="EBUS" speed="11.95" pos="134.41" lane="e1to2_0" slope="0.00"/>
    </timestep>
    <timestep time="0.80">
        <vehicle id="d1" x="-0.67" y="-1.60" angle="90.00" type="EBUS2" speed="0.00" pos="199.33" lane="e1to2_0" slope="0.00"/>
        <vehicle id="o1" x="-64.38" y="-1.60" angle="90.00" type="EBUS" speed="12.09" pos="135.62" lane="e1to2_0" slope="0.00"/>
    </timestep>
    <timestep time="0.90">
        <vehicle id="d1" x="-0.67" y="-1.60" angle="90.00" type="EBUS2" speed="0.00" pos="199.33" lane="e1to2_0" slope="0.00"/>
        <vehicle id="o1" x="-63.16" y="-1.60" angle="90.00" type="EBUS" speed="12.23" pos="136.84" lane="e1to2_0" slope="0.00"/>
    </timestep>
    <timestep time="1.00">
        <vehicle id="d1" x="-0.67" y="-1.60" angle="90.00" type="EBUS2" speed="0.00" pos="199.33" lane="e1to2_0" slope="0.00"/>
        <vehicle id="o1" x="-61.92" y="-1.60" angle="90.00" type="EBUS" speed="12.37" pos="138.08" lane="e1to2_0" slope="0.00"/>
    </timestep>
    <timestep time="1.10">
        <vehicle id="d1" x="-0.67" y="-1.60" angle="90.00" type="EBUS2" speed="0.00" pos="199.33" lane="e1to2_0" slope="0.00"/>
        <vehicle id="o1" x="-60.67" y="-1.60" angle="90.00" type="EBUS" speed="12.51" pos="139.33" lane="e1to2_0" slope="0.00"/>
    </timestep>
    <timestep time="1.20">
        <vehicle id="d1" x="-0.67" y="-1.60" angle="90.00" type="EBUS2" speed="0.00" pos="199.33" lane="e1to2_0" slope="0.00"/>
        <vehicle id="o1" x="-59.40" y="-1.60" angle="90.00" type="EBUS" speed="12.65" pos="140.60" lane="e1to2_0" slope="0.00"/>
    </timestep>
    <timestep time="1.30">
        <vehicle id="d1" x="-0.67" y="-1.60" angle="90.00" type="EBUS2" speed="0.00" pos="199.33" lane="e1to2_0" slope="0.00"/>
        <vehicle id="o1" x="-58.13" y="-1.60" angle="90.00" type="EBUS" speed="12.79" pos="141.87" lane="e1to2_0" slope="0.00"/>
    </timestep>
    <timestep time="1.40">
        <vehicle id="d1" x="-0.67" y="-1.60" angle="90.00" type="EBUS2" speed="0.00" pos="199.33" lane="e1to2_0" slope="0.00"/>
        <vehicle id="o1" x="-56.83" y="-1.60" angle="90.00" type="EBUS" speed="12.93" pos="143.17" lane="e1to2_0" slope="0.00"/>
    </timestep>
    <timestep time="1.50">
        <vehicle id="d1" x="-0.67" y="-1.60" angle="90.00" type="EBUS2" speed="0.00" pos="199.33" lane="e1to2_0" slope="0.00"/>
        <vehicle id="o1" x="-55.53" y="-1.60" angle="90.00" type="EBUS" speed="13.07" pos="144.47" lane="e1to2_0" slope="0.00"/>
    </timestep>
    <timestep time="1.60">
        <vehicle id="d1" x="-0.67" y="-1.60" angle="90.00" type="EBUS2" speed="0.00" pos="199.33" lane="e1to2_0" slope="0.00"/>
        <vehicle id="o1" x="-54.20" y="-1.60" angle="90.00" type="EBUS" speed="13.21" pos="145.80" lane="e1to2_0" slope="0.00"/>
    </timestep>
    <timestep time="1.70">
        <vehicle id="d1" x="-0.67" y="-1.60" angle="90.00" type="EBUS2" speed="0.00" pos="199.33" lane="e1to2_0" slope="0.00"/>
        <vehicle id="o1" x="-52.87" y="-1.60" angle="90.00" type="EBUS" speed="13.35" pos="147.13" lane="e1to2_0" slope="0.00"/>
    </timestep>
    <timestep time="1.80">
        <vehicle id="d1" x="-0.67" y="-1.60" angle="90.00" type="EBUS2" speed="0.00" pos="199.33" lane="e1to2_0" slope="0.00"/>
        <vehicle id="o1" x="-51.52" y="-1.60" angle="90.00" type="EBUS" speed="13.49" pos="148.48" lane="e1to2_0" slope="0.00"/>
    </timestep>
    <timestep time="1.90">
        <vehicle id="d1" x="-0.66" y="-1.60" angle="90.00" type="EBUS2" speed="0.15" pos="199.34" lane="e1to2_0" slope="0.00"/>
        <vehicle id="o1" x="-50.16" y="-1.60" angle="90.00" type="EBUS" speed="13.63" pos="149.84" lane="e1to2_0" slope="0.00"/>
    </timestep>
    <timestep time="2.00">
        <vehicle id="d1" x="-0.63" y="-1.60" angle="90.00" type="EBUS2" speed="0.30" pos="199.37" lane="e1to2_0" slope="0.00"/>
        <vehicle id="o1" x="-48.78" y="-1.60" angle="90.00" type="EBUS" speed="13.77" pos="151.22" lane="e1to2_0" slope="0.00"/>
    </timestep>
    <timestep time="2.10">
        <vehicle id="d1" x="-0.58" y="-1.60" angle="90.00" type="EBUS2" speed="0.45" pos="199.42" lane="e1to2_0" slope="0.00"/>
        <vehicle id="o1" x="-47.39" y="-1.60" angle="90.00" type="EBUS" speed="13.91" pos="152.61" lane="e1to2_0" slope="0.00"/>
    </timestep>
    <timestep time="2.20">
        <vehicle id="d1" x="-0.52" y="-1.60" angle="90.00" type="EBUS2" speed="0.60" pos="199.48" lane="e1to2_0" slope="0.00"/>
        <vehicle id="o1" x="-45.98" y="-1.60" angle="90.00" type="EBUS" speed="14.05" pos="154.02" lane="e1to2_0" slope="0.00"/>
    </timestep>
    <timestep time="2.30">
        <vehicle id="d1" x="-0.45" y="-1.60" angle="90.00" type="EBUS2" speed="0.75" pos="199.55" lane="e1to2_0" slope="0.00"/>
        <vehicle id="o1" x="-44.57" y="-1.60" angle="90.00" type="EBUS" speed="14.19" pos="155.43" lane="e1to2_0" slope="0.00"/>
    </timestep>
    <timestep time="2.40">
        <vehicle id="d1" x="-0.36" y="-1.60" angle="90.00" type="EBUS2" speed="0.90" pos="199.64" lane="e1to2_0" slope="0.00"/>
        <vehicle id="o1" x="-43.13" y="-1.60" angle="90.00" type="EBUS" speed="14.33" pos="156.87" lane="e1to2_0" slope="0.00"/>
    </timestep>
    <timestep time="2.50">
        <vehicle id="d1" x="-0.25" y="-1.60" angle="90.00" type="EBUS2" speed="1.04" pos="199.75" lane="e1to2_0" slope="0.00"/>
        <vehicle id="o1" x="-41.69" y="-1.60" angle="90.00" type="EBUS" speed="14.47" pos="158.31" lane="e1to2_0" slope="0.00"/>
    </timestep>
    <timestep time="2.60">
        <vehicle id="d1" x="-0.13" y="-1.60" angle="90.00" type="EBUS2" speed="1.19" pos="199.87" lane="e1to2_0" slope="0.00"/>
        <vehicle id="o1" x="-40.23" y="-1.60" angle="90.00" type="EBUS" speed="14.61" pos="159.77" lane="e1to2_0" slope="0.00"/>
    </timestep>
    <timestep time="2.70">
        <vehicle id="d1" x="0.00" y="-1.60" angle="90.00" type="EBUS2" speed="1.34" pos="0.00" lane=":2_0_0" slope="0.00"/>
        <vehicle id="o1" x="-38.75" y="-1.60" angle="90.00" type="EBUS" speed="14.75" pos="161.25" lane="e1to2_0" slope="0.00"/>
    </timestep>
    <timestep time="2.80">
        <vehicle id="d1" x="0.05" y="-1.60" angle="90.00" type="EBUS2" speed="1.49" pos="0.05" lane="e2to3_0" slope="0.00"/>
        <vehicle id="o1" x="-37.26" y="-1.60" angle="90.00" type="EBUS" speed="14.89" pos="162.74" lane="e1to2_0" slope="0.00"/>
    </timestep>
    <timestep time="2.90">
        <vehicle id="d1" x="0.21" y="-1.60" angle="90.00" type="EBUS2" speed="1.64" pos="0.21" lane="e2to3_0" slope="0.00"/>
        <vehicle id="o1" x="-35.76" y="-1.60" angle="90.00" type="EBUS" speed="15.03" pos="164.24" lane="e1to2_0" slope="0.00"/>
    </timestep>
    <timestep time="3.00">
        <vehicle id="d1" x="0.39" y="-1.60" angle="90.00" type="EBUS2" speed="1.79" pos="0.39" lane="e2to3_0" slope="0.00"/>
        <vehicle id="o1" x="-34.24" y="-1.60" angle="90.00" type="EBUS" speed="15.17" pos="165.76" lane="e1to2_0" slope="0.00"/>
    </timestep>
    <timestep time="3.10">
        <vehicle id="d1" x="0.59" y="-1.60" angle="90.00" type="EBUS2" speed="1.94" pos="0.59" lane="e2to3_0" slope="0.00"/>
        <vehicle id="o1" x="-32.71" y="-1.60" angle="90.00" type="EBUS" speed="15.31" pos="167.29" lane="e1to2_0" slope="0.00"/>
    </timestep>
    <timestep time="3.20">
        <vehicle id="d1" x="0.80" y="-1.60" angle="90.00" type="EBUS2" speed="2.09" pos="0.80" lane="e2to3_0" slope="0.00"/>
        <vehicle id="o1" x="-31.17" y="-1.60" angle="90.00" type="EBUS" speed="15.45" pos="168.83" lane="e1to2_0" slope="0.00"/>
    </timestep>
    <timestep time="3.30">
        <vehicle id="d1" x="1.02" y="-1.60" angle="90.00" type="EBUS2" speed="2.23" pos="1.02" lane="e2to3_0" slope="0.00"/>
        <vehicle id="o1" x="-29.61" y="-1.60" angle="90.00" type="EBUS" speed="15.59" pos="170.39" lane="e1to2_0" slope="0.00"/>
    </timestep>
    <timestep time="3.40">
        <vehicle id="d1" x="1.26" y="-1.60" angle="90.00" type="EBUS2" speed="2.38" pos="1.26" lane="e2to3_0" slope="0.00"/>
        <vehicle id="o1" x="-28.03" y="-1.60" angle="90.00" type="EBUS" speed="15.73" pos="171.97" lane="e1to2_0" slope="0.00"/>
    </timestep>
    <timestep time="3.50">
        <vehicle id="d1" x="1.51" y="-1.60" angle="90.00" type="EBUS2" speed="2.53" pos="1.51" lane="e2to3_0" slope="0.00"/>
        <vehicle id="o1" x="-26.45" y="-1.60" angle="90.00" type="EBUS" speed="15.87" pos="173.55" lane="e1to2_0" slope="0.00"/>
    </timestep>
    <timestep time="3.60">
        <vehicle id="d1" x="1.78" y="-1.60" angle="90.00" type="EBUS2" speed="2.68" pos="1.78" lane="e2to3_0" slope="0.00"/>
        <vehicle id="o1" x="-24.85" y="-1.60" angle="90.00" type="EBUS" speed="16.01" pos="175.15" lane="e1to2_0" slope="0.00"/>
    </timestep>
    <timestep time="3.70">
        <vehicle id="d1" x="2.06" y="-1.60" angle="90.00" type="EBUS2" speed="2.83" pos="2.06" lane="e2to3_0" slope="0.00"/>
        <vehicle id="o1" x="-23.23" y="-1.60" angle="90.00" type="EBUS" speed="16.15" pos="176.77" lane="e1to2_0" slope="0.00"/>
    </timestep>
    <timestep time="3.80">
        <vehicle id="d1" x="2.36" y="-1.60" angle="90.00" type="EBUS2" speed="2.98" pos="2.36" lane="e2to3_0" slope="0.00"/>
        <vehicle id="o1" x="-21.60" y="-1.60" angle="90.00" type="EBUS" speed="16.29" pos="178.40" lane="e1to2_0" slope="0.00"/>
    </timestep>
    <timestep time="3.90">
        <vehicle id="d1" x="2.67" y="-1.60" angle="90.00" type="EBUS2" speed="3.13" pos="2.67" lane="e2to3_0" slope="0.00"/>
        <vehicle id="o1" x="-20.00" y="-1.60" angle="90.00" type="EBUS" speed="16.02" pos="180.00" lane="e1to2_0" slope="0.00"/>
    </timestep>
    <timestep time="4.00">
        <vehicle id="d1" x="3.00" y="-1.60" angle="90.00" type="EBUS2" speed="3.28" pos="3.00" lane="e2to3_0" slope="0.00"/>
        <vehicle id="o1" x="-18.45" y="-1.60" angle="90.00" type="EBUS" speed="15.45" pos="181.55" lane="e1to2_0" slope="0.00"/>
    </timestep>
    <timestep time="4.10">
        <vehicle id="d1" x="3.34" y="-1.60" angle="90.00" type="EBUS2" speed="3.42" pos="3.34" lane="e2to3_0" slope="0.00"/>
        <vehicle id="o1" x="-16.97" y="-1.60" angle="90.00" type="EBUS" speed="14.89" pos="183.03" lane="e1to2_0" slope="0.00"/>
    </timestep>
    <timestep time="4.20">
        <vehicle id="d1" x="3.70" y="-1.60" angle="90.00" type="EBUS2" speed="3.57" pos="3.70" lane="e2to3_0" slope="0.00"/>
        <vehicle id="o1" x="-15.53" y="-1.60" angle="90.00" type="EBUS" speed="14.36" pos="184.47" lane="e1to2_0" slope="0.00"/>
    </timestep>
    <timestep time="4.30">
        <vehicle id="d1" x="4.07" y="-1.60" angle="90.00" type="EBUS2" speed="3.72" pos="4.07" lane="e2to3_0" slope="0.00"/>
        <vehicle id="o1" x="-14.15" y="-1.60" angle="90.00" type="EBUS" speed="13.83" pos="185.85" lane="e1to2_0" slope="0.00"/>
    </timestep>
    <timestep time="4.40">
        <vehicle id="d1" x="4.46" y="-1.60" angle="90.00" type="EBUS2" speed="3.87" pos="4.46" lane="e2to3_0" slope="0.00"/>
        <vehicle id="o1" x="-12.81" y="-1.60" angle="90.00" type="EBUS" speed="13.33" pos="187.19" lane="e1to2_0" slope="0.00"/>
    </timestep>
    <timestep time="4.50">
        <vehicle id="d1" x="4.86" y="-1.60" angle="90.00" type="EBUS2" speed="4.02" pos="4.86" lane="e2to3_0" slope="0.00"/>
        <vehicle id="o1" x="-11.53" y="-1.60" angle="90.00" type="EBUS" speed="12.85" pos="188.47" lane="e1to2_0" slope="0.00"/>
    </timestep>
    <timestep time="4.60">
        <vehicle id="d1" x="5.28" y="-1.60" angle="90.00" type="EBUS2" speed="4.17" pos="5.28" lane="e2to3_0" slope="0.00"/>
        <vehicle id="o1" x="-10.29" y="-1.60" angle="90.00" type="EBUS" speed="12.38" pos="189.71" lane="e1to2_0" slope="0.00"/>
    </timestep>
    <timestep time="4.70">
        <vehicle id="d1" x="5.71" y="-1.60" angle="90.00" type="EBUS2" speed="4.31" pos="5.71" lane="e2to3_0" slope="0.00"/>
        <vehicle id="o1" x="-9.10" y="-1.60" angle="90.00" type="EBUS" speed="11.95" pos="190.90" lane="e1to2_0" slope="0.00"/>
    </timestep>
    <timestep time="4.80">
        <vehicle id="d1" x="6.15" y="-1.60" angle="90.00" type="EBUS2" speed="4.46" pos="6.15" lane="e2to3_0" slope="0.00"/>
        <vehicle id="o1" x="-7.94" y="-1.60" angle="90.00" type="EBUS" speed="11.53" pos="192.06" lane="e1to2_0" slope="0.00"/>
    </timestep>
    <timestep time="4.90">
        <vehicle id="d1" x="6.62" y="-1.60" angle="90.00" type="EBUS2" speed="4.61" pos="6.62" lane="e2to3_0" slope="0.00"/>
        <vehicle id="o1" x="-6.83" y="-1.60" angle="90.00" type="EBUS" speed="11.15" pos="193.17" lane="e1to2_0" slope="0.00"/>
    </timestep>
    <timestep time="5.00">
        <vehicle id="d1" x="7.09" y="-1.60" angle="90.00" type="EBUS2" speed="4.76" pos="7.09" lane="e2to3_0" slope="0.00"/>
        <vehicle id="o1" x="-5.75" y="-1.60" angle="90.00" type="EBUS" speed="10.77" pos="194.25" lane="e1to2_0" slope="0.00"/>
    </timestep>
    <timestep time="5.10">
        <vehicle id="d1" x="7.58" y="-1.60" angle="90.00" type="EBUS2" speed="4.91" pos="7.58" lane="e2to3_0" slope="0.00"/>
        <vehicle id="o1" x="-4.71" y="-1.60" angle="90.00" type="EBUS" speed="10.43" pos="195.29" lane="e1to2_0" slope="0.00"/>
    </timestep>
    <timestep time="5.20">
        <vehicle id="d1" x="8.09" y="-1.60" angle="90.00" type="EBUS2" speed="5.06" pos="8.09" lane="e2to3_0" slope="0.00"/>
        <vehicle id="o1" x="-3.70" y="-1.60" angle="90.00" type="EBUS" speed="10.11" pos="196.30" lane="e1to2_0" slope="0.00"/>
    </timestep>
    <timestep time="5.30">
        <vehicle id="d1" x="8.61" y="-1.60" angle="90.00" type="EBUS2" speed="5.21" pos="8.61" lane="e2to3_0" slope="0.00"/>
        <vehicle id="o1" x="-2.71" y="-1.60" angle="90.00" type="EBUS" speed="9.82" pos="197.29" lane="e1to2_0" slope="0.00"/>
    </timestep>
    <timestep time="5.40">
        <vehicle id="d1" x="9.14" y="-1.60" angle="90.00" type="EBUS2" speed="5.36" pos="9.14" lane="e2to3_0" slope="0.00"/>
        <vehicle id="o1" x="-1.76" y="-1.60" angle="90.00" type="EBUS" speed="9.57" pos="198.24" lane="e1to2_0" slope="0.00"/>
    </timestep>
    <timestep time="5.50">
        <vehicle id="d1" x="9.69" y="-1.60" angle="90.00" type="EBUS2" speed="5.51" pos="9.69" lane="e2to3_0" slope="0.00"/>
        <vehicle id="o1" x="-0.82" y="-1.60" angle="90.00" type="EBUS" speed="9.32" pos="199.18" lane="e1to2_0" slope="0.00"/>
    </timestep>
    <timestep time="5.60">
        <vehicle id="d1" x="10.26" y="-1.60" angle="90.00" type="EBUS2" speed="5.66" pos="10.26" lane="e2to3_0" slope="0.00"/>
        <vehicle id="o1" x="0.00" y="-1.60" angle="90.00" type="EBUS" speed="9.10" pos="0.09" lane=":2_0_0" slope="0.00"/>
    </timestep>
</fcd-export>
