<?xml version="1.0" encoding="UTF-8"?>

<!-- generated on 2022-12-09 00:21:46 by Eclipse SUMO libsumo Version UNKNOWN
<configuration xmlns:xsi="http://www.w3.org/2001/XMLSchema-instance" xsi:noNamespaceSchemaLocation="http://sumo.dlr.de/xsd/libsumoConfiguration.xsd">

    <input>
        <net-file value="/home/liuli/github/SUMONBDT/sumoCfgs1/my1Lane1TLS.net.xml"/>
        <route-files value="/home/liuli/github/SUMONBDT/sumoCfgs1/m1Lane1Tls.rou.xml"/>
    </input>

    <output>
        <fcd-output value="/home/liuli/github/SUMONBDT/sumoCfgs1/fcd-output.xml"/>
        <full-output value="/home/liuli/github/SUMONBDT/sumoCfgs1/full-output.xml"/>
        <summary-output value="/home/liuli/github/SUMONBDT/sumoCfgs1/summary.xml"/>
    </output>

    <time>
        <begin value="0"/>
        <end value="50"/>
        <step-length value="0.1"/>
    </time>

    <processing>
        <ignore-route-errors value="true"/>
    </processing>

</configuration>
-->

<fcd-export xmlns:xsi="http://www.w3.org/2001/XMLSchema-instance" xsi:noNamespaceSchemaLocation="http://sumo.dlr.de/xsd/fcd_file.xsd">
    <timestep time="0.00"/>
    <timestep time="0.10">
        <vehicle id="d1" x="-0.95" y="-1.60" angle="90.00" type="EBUS2" speed="0.00" pos="199.05" lane="e1to2_0" slope="0.00"/>
        <vehicle id="d10" x="-52.49" y="-1.60" angle="90.00" type="EBUS2" speed="1.16" pos="147.51" lane="e1to2_0" slope="0.00"/>
        <vehicle id="d11" x="-60.17" y="-1.60" angle="90.00" type="EBUS2" speed="1.78" pos="139.83" lane="e1to2_0" slope="0.00"/>
        <vehicle id="d12" x="-68.50" y="-1.60" angle="90.00" type="EBUS2" speed="1.42" pos="131.50" lane="e1to2_0" slope="0.00"/>
        <vehicle id="d2" x="-6.45" y="-1.60" angle="90.00" type="EBUS2" speed="0.00" pos="193.55" lane="e1to2_0" slope="0.00"/>
        <vehicle id="d3" x="-11.95" y="-1.60" angle="90.00" type="EBUS2" speed="0.00" pos="188.05" lane="e1to2_0" slope="0.00"/>
        <vehicle id="d4" x="-17.45" y="-1.60" angle="90.00" type="EBUS2" speed="0.00" pos="182.55" lane="e1to2_0" slope="0.00"/>
        <vehicle id="d5" x="-22.96" y="-1.60" angle="90.00" type="EBUS2" speed="0.01" pos="177.04" lane="e1to2_0" slope="0.00"/>
        <vehicle id="d6" x="-28.47" y="-1.60" angle="90.00" type="EBUS2" speed="0.03" pos="171.53" lane="e1to2_0" slope="0.00"/>
        <vehicle id="d7" x="-34.04" y="-1.60" angle="90.00" type="EBUS2" speed="0.06" pos="165.96" lane="e1to2_0" slope="0.00"/>
        <vehicle id="d8" x="-39.61" y="-1.60" angle="90.00" type="EBUS2" speed="0.43" pos="160.39" lane="e1to2_0" slope="0.00"/>
        <vehicle id="d9" x="-45.82" y="-1.60" angle="90.00" type="EBUS2" speed="0.57" pos="154.18" lane="e1to2_0" slope="0.00"/>
        <vehicle id="o1" x="-99.24" y="-1.60" angle="90.00" type="EBUS" speed="15.20" pos="100.76" lane="e1to2_0" slope="0.00"/>
    </timestep>
    <timestep time="0.20">
        <vehicle id="d1" x="-0.93" y="-1.60" angle="90.00" type="EBUS2" speed="0.20" pos="199.07" lane="e1to2_0" slope="0.00"/>
        <vehicle id="d10" x="-52.35" y="-1.60" angle="90.00" type="EBUS2" speed="1.36" pos="147.65" lane="e1to2_0" slope="0.00"/>
        <vehicle id="d11" x="-59.97" y="-1.60" angle="90.00" type="EBUS2" speed="1.98" pos="140.03" lane="e1to2_0" slope="0.00"/>
        <vehicle id="d12" x="-68.34" y="-1.60" angle="90.00" type="EBUS2" speed="1.62" pos="131.66" lane="e1to2_0" slope="0.00"/>
        <vehicle id="d2" x="-6.43" y="-1.60" angle="90.00" type="EBUS2" speed="0.20" pos="193.57" lane="e1to2_0" slope="0.00"/>
        <vehicle id="d3" x="-11.93" y="-1.60" angle="90.00" type="EBUS2" speed="0.20" pos="188.07" lane="e1to2_0" slope="0.00"/>
        <vehicle id="d4" x="-17.43" y="-1.60" angle="90.00" type="EBUS2" speed="0.20" pos="182.57" lane="e1to2_0" slope="0.00"/>
        <vehicle id="d5" x="-22.94" y="-1.60" angle="90.00" type="EBUS2" speed="0.21" pos="177.06" lane="e1to2_0" slope="0.00"/>
        <vehicle id="d6" x="-28.45" y="-1.60" angle="90.00" type="EBUS2" speed="0.23" pos="171.55" lane="e1to2_0" slope="0.00"/>
        <vehicle id="d7" x="-34.01" y="-1.60" angle="90.00" type="EBUS2" speed="0.26" pos="165.99" lane="e1to2_0" slope="0.00"/>
        <vehicle id="d8" x="-39.56" y="-1.60" angle="90.00" type="EBUS2" speed="0.54" pos="160.44" lane="e1to2_0" slope="0.00"/>
        <vehicle id="d9" x="-45.74" y="-1.60" angle="90.00" type="EBUS2" speed="0.77" pos="154.26" lane="e1to2_0" slope="0.00"/>
        <vehicle id="o1" x="-97.72" y="-1.60" angle="90.00" type="EBUS" speed="15.20" pos="102.28" lane="e1to2_0" slope="0.00"/>
    </timestep>
    <timestep time="0.30">
        <vehicle id="d1" x="-0.89" y="-1.60" angle="90.00" type="EBUS2" speed="0.40" pos="199.11" lane="e1to2_0" slope="0.00"/>
        <vehicle id="d10" x="-52.20" y="-1.60" angle="90.00" type="EBUS2" speed="1.56" pos="147.80" lane="e1to2_0" slope="0.00"/>
        <vehicle id="d11" x="-59.75" y="-1.60" angle="90.00" type="EBUS2" speed="2.18" pos="140.25" lane="e1to2_0" slope="0.00"/>
        <vehicle id="d12" x="-68.16" y="-1.60" angle="90.00" type="EBUS2" speed="1.82" pos="131.84" lane="e1to2_0" slope="0.00"/>
        <vehicle id="d2" x="-6.39" y="-1.60" angle="90.00" type="EBUS2" speed="0.40" pos="193.61" lane="e1to2_0" slope="0.00"/>
        <vehicle id="d3" x="-11.89" y="-1.60" angle="90.00" type="EBUS2" speed="0.40" pos="188.11" lane="e1to2_0" slope="0.00"/>
        <vehicle id="d4" x="-17.39" y="-1.60" angle="90.00" type="EBUS2" speed="0.40" pos="182.61" lane="e1to2_0" slope="0.00"/>
        <vehicle id="d5" x="-22.90" y="-1.60" angle="90.00" type="EBUS2" speed="0.41" pos="177.10" lane="e1to2_0" slope="0.00"/>
        <vehicle id="d6" x="-28.41" y="-1.60" angle="90.00" type="EBUS2" speed="0.41" pos="171.59" lane="e1to2_0" slope="0.00"/>
        <vehicle id="d7" x="-33.97" y="-1.60" angle="90.00" type="EBUS2" speed="0.46" pos="166.03" lane="e1to2_0" slope="0.00"/>
        <vehicle id="d8" x="-39.51" y="-1.60" angle="90.00" type="EBUS2" speed="0.48" pos="160.49" lane="e1to2_0" slope="0.00"/>
        <vehicle id="d9" x="-45.65" y="-1.60" angle="90.00" type="EBUS2" speed="0.97" pos="154.35" lane="e1to2_0" slope="0.00"/>
        <vehicle id="o1" x="-96.20" y="-1.60" angle="90.00" type="EBUS" speed="15.20" pos="103.80" lane="e1to2_0" slope="0.00"/>
    </timestep>
    <timestep time="0.40">
        <vehicle id="d1" x="-0.83" y="-1.60" angle="90.00" type="EBUS2" speed="0.60" pos="199.17" lane="e1to2_0" slope="0.00"/>
        <vehicle id="d10" x="-52.02" y="-1.60" angle="90.00" type="EBUS2" speed="1.76" pos="147.98" lane="e1to2_0" slope="0.00"/>
        <vehicle id="d11" x="-59.52" y="-1.60" angle="90.00" type="EBUS2" speed="2.38" pos="140.48" lane="e1to2_0" slope="0.00"/>
        <vehicle id="d12" x="-67.95" y="-1.60" angle="90.00" type="EBUS2" speed="2.02" pos="132.05" lane="e1to2_0" slope="0.00"/>
        <vehicle id="d2" x="-6.35" y="-1.60" angle="90.00" type="EBUS2" speed="0.40" pos="193.65" lane="e1to2_0" slope="0.00"/>
        <vehicle id="d3" x="-11.85" y="-1.60" angle="90.00" type="EBUS2" speed="0.40" pos="188.15" lane="e1to2_0" slope="0.00"/>
        <vehicle id="d4" x="-17.35" y="-1.60" angle="90.00" type="EBUS2" speed="0.40" pos="182.65" lane="e1to2_0" slope="0.00"/>
        <vehicle id="d5" x="-22.86" y="-1.60" angle="90.00" type="EBUS2" speed="0.41" pos="177.14" lane="e1to2_0" slope="0.00"/>
        <vehicle id="d6" x="-28.36" y="-1.60" angle="90.00" type="EBUS2" speed="0.41" pos="171.64" lane="e1to2_0" slope="0.00"/>
        <vehicle id="d7" x="-33.92" y="-1.60" angle="90.00" type="EBUS2" speed="0.52" pos="166.08" lane="e1to2_0" slope="0.00"/>
        <vehicle id="d8" x="-39.46" y="-1.60" angle="90.00" type="EBUS2" speed="0.48" pos="160.54" lane="e1to2_0" slope="0.00"/>
        <vehicle id="d9" x="-45.53" y="-1.60" angle="90.00" type="EBUS2" speed="1.17" pos="154.47" lane="e1to2_0" slope="0.00"/>
        <vehicle id="o1" x="-94.68" y="-1.60" angle="90.00" type="EBUS" speed="15.20" pos="105.32" lane="e1to2_0" slope="0.00"/>
    </timestep>
    <timestep time="0.50">
        <vehicle id="d1" x="-0.75" y="-1.60" angle="90.00" type="EBUS2" speed="0.80" pos="199.25" lane="e1to2_0" slope="0.00"/>
        <vehicle id="d10" x="-51.83" y="-1.60" angle="90.00" type="EBUS2" speed="1.96" pos="148.17" lane="e1to2_0" slope="0.00"/>
        <vehicle id="d11" x="-59.26" y="-1.60" angle="90.00" type="EBUS2" speed="2.58" pos="140.74" lane="e1to2_0" slope="0.00"/>
        <vehicle id="d12" x="-67.73" y="-1.60" angle="90.00" type="EBUS2" speed="2.22" pos="132.27" lane="e1to2_0" slope="0.00"/>
        <vehicle id="d2" x="-6.31" y="-1.60" angle="90.00" type="EBUS2" speed="0.44" pos="193.69" lane="e1to2_0" slope="0.00"/>
        <vehicle id="d3" x="-11.81" y="-1.60" angle="90.00" type="EBUS2" speed="0.40" pos="188.19" lane="e1to2_0" slope="0.00"/>
        <vehicle id="d4" x="-17.31" y="-1.60" angle="90.00" type="EBUS2" speed="0.40" pos="182.69" lane="e1to2_0" slope="0.00"/>
        <vehicle id="d5" x="-22.82" y="-1.60" angle="90.00" type="EBUS2" speed="0.41" pos="177.18" lane="e1to2_0" slope="0.00"/>
        <vehicle id="d6" x="-28.32" y="-1.60" angle="90.00" type="EBUS2" speed="0.41" pos="171.68" lane="e1to2_0" slope="0.00"/>
        <vehicle id="d7" x="-33.87" y="-1.60" angle="90.00" type="EBUS2" speed="0.50" pos="166.13" lane="e1to2_0" slope="0.00"/>
        <vehicle id="d8" x="-39.41" y="-1.60" angle="90.00" type="EBUS2" speed="0.49" pos="160.59" lane="e1to2_0" slope="0.00"/>
        <vehicle id="d9" x="-45.39" y="-1.60" angle="90.00" type="EBUS2" speed="1.37" pos="154.61" lane="e1to2_0" slope="0.00"/>
        <vehicle id="o1" x="-93.16" y="-1.60" angle="90.00" type="EBUS" speed="15.20" pos="106.84" lane="e1to2_0" slope="0.00"/>
    </timestep>
    <timestep time="0.60">
        <vehicle id="d1" x="-0.65" y="-1.60" angle="90.00" type="EBUS2" speed="1.00" pos="199.35" lane="e1to2_0" slope="0.00"/>
        <vehicle id="d10" x="-51.62" y="-1.60" angle="90.00" type="EBUS2" speed="2.07" pos="148.38" lane="e1to2_0" slope="0.00"/>
        <vehicle id="d11" x="-58.98" y="-1.60" angle="90.00" type="EBUS2" speed="2.78" pos="141.02" lane="e1to2_0" slope="0.00"/>
        <vehicle id="d12" x="-67.49" y="-1.60" angle="90.00" type="EBUS2" speed="2.42" pos="132.51" lane="e1to2_0" slope="0.00"/>
        <vehicle id="d2" x="-6.26" y="-1.60" angle="90.00" type="EBUS2" speed="0.51" pos="193.74" lane="e1to2_0" slope="0.00"/>
        <vehicle id="d3" x="-11.77" y="-1.60" angle="90.00" type="EBUS2" speed="0.41" pos="188.23" lane="e1to2_0" slope="0.00"/>
        <vehicle id="d4" x="-17.27" y="-1.60" angle="90.00" type="EBUS2" speed="0.40" pos="182.73" lane="e1to2_0" slope="0.00"/>
        <vehicle id="d5" x="-22.77" y="-1.60" angle="90.00" type="EBUS2" speed="0.41" pos="177.23" lane="e1to2_0" slope="0.00"/>
        <vehicle id="d6" x="-28.28" y="-1.60" angle="90.00" type="EBUS2" speed="0.41" pos="171.72" lane="e1to2_0" slope="0.00"/>
        <vehicle id="d7" x="-33.82" y="-1.60" angle="90.00" type="EBUS2" speed="0.48" pos="166.18" lane="e1to2_0" slope="0.00"/>
        <vehicle id="d8" x="-39.36" y="-1.60" angle="90.00" type="EBUS2" speed="0.49" pos="160.64" lane="e1to2_0" slope="0.00"/>
        <vehicle id="d9" x="-45.26" y="-1.60" angle="90.00" type="EBUS2" speed="1.28" pos="154.74" lane="e1to2_0" slope="0.00"/>
        <vehicle id="o1" x="-91.64" y="-1.60" angle="90.00" type="EBUS" speed="15.20" pos="108.36" lane="e1to2_0" slope="0.00"/>
    </timestep>
    <timestep time="0.70">
        <vehicle id="d1" x="-0.53" y="-1.60" angle="90.00" type="EBUS2" speed="1.20" pos="199.47" lane="e1to2_0" slope="0.00"/>
        <vehicle id="d10" x="-51.43" y="-1.60" angle="90.00" type="EBUS2" speed="1.95" pos="148.57" lane="e1to2_0" slope="0.00"/>
        <vehicle id="d11" x="-58.70" y="-1.60" angle="90.00" type="EBUS2" speed="2.80" pos="141.30" lane="e1to2_0" slope="0.00"/>
        <vehicle id="d12" x="-67.23" y="-1.60" angle="90.00" type="EBUS2" speed="2.61" pos="132.77" lane="e1to2_0" slope="0.00"/>
        <vehicle id="d2" x="-6.19" y="-1.60" angle="90.00" type="EBUS2" speed="0.63" pos="193.81" lane="e1to2_0" slope="0.00"/>
        <vehicle id="d3" x="-11.73" y="-1.60" angle="90.00" type="EBUS2" speed="0.43" pos="188.27" lane="e1to2_0" slope="0.00"/>
        <vehicle id="d4" x="-17.23" y="-1.60" angle="90.00" type="EBUS2" speed="0.40" pos="182.77" lane="e1to2_0" slope="0.00"/>
        <vehicle id="d5" x="-22.73" y="-1.60" angle="90.00" type="EBUS2" speed="0.41" pos="177.27" lane="e1to2_0" slope="0.00"/>
        <vehicle id="d6" x="-28.24" y="-1.60" angle="90.00" type="EBUS2" speed="0.41" pos="171.76" lane="e1to2_0" slope="0.00"/>
        <vehicle id="d7" x="-33.77" y="-1.60" angle="90.00" type="EBUS2" speed="0.47" pos="166.23" lane="e1to2_0" slope="0.00"/>
        <vehicle id="d8" x="-39.31" y="-1.60" angle="90.00" type="EBUS2" speed="0.49" pos="160.69" lane="e1to2_0" slope="0.00"/>
        <vehicle id="d9" x="-45.15" y="-1.60" angle="90.00" type="EBUS2" speed="1.15" pos="154.85" lane="e1to2_0" slope="0.00"/>
        <vehicle id="o1" x="-90.15" y="-1.60" angle="90.00" type="EBUS" speed="14.90" pos="109.85" lane="e1to2_0" slope="0.00"/>
    </timestep>
    <timestep time="0.80">
        <vehicle id="d1" x="-0.39" y="-1.60" angle="90.00" type="EBUS2" speed="1.40" pos="199.61" lane="e1to2_0" slope="0.00"/>
        <vehicle id="d10" x="-51.24" y="-1.60" angle="90.00" type="EBUS2" speed="1.81" pos="148.76" lane="e1to2_0" slope="0.00"/>
        <vehicle id="d11" x="-58.42" y="-1.60" angle="90.00" type="EBUS2" speed="2.80" pos="141.58" lane="e1to2_0" slope="0.00"/>
        <vehicle id="d12" x="-66.95" y="-1.60" angle="90.00" type="EBUS2" speed="2.81" pos="133.05" lane="e1to2_0" slope="0.00"/>
        <vehicle id="d2" x="-6.11" y="-1.60" angle="90.00" type="EBUS2" speed="0.78" pos="193.89" lane="e1to2_0" slope="0.00"/>
        <vehicle id="d3" x="-11.68" y="-1.60" angle="90.00" type="EBUS2" speed="0.47" pos="188.32" lane="e1to2_0" slope="0.00"/>
        <vehicle id="d4" x="-17.19" y="-1.60" angle="90.00" type="EBUS2" speed="0.40" pos="182.81" lane="e1to2_0" slope="0.00"/>
        <vehicle id="d5" x="-22.69" y="-1.60" angle="90.00" type="EBUS2" speed="0.40" pos="177.31" lane="e1to2_0" slope="0.00"/>
        <vehicle id="d6" x="-28.20" y="-1.60" angle="90.00" type="EBUS2" speed="0.41" pos="171.80" lane="e1to2_0" slope="0.00"/>
        <vehicle id="d7" x="-33.72" y="-1.60" angle="90.00" type="EBUS2" speed="0.46" pos="166.28" lane="e1to2_0" slope="0.00"/>
        <vehicle id="d8" x="-39.27" y="-1.60" angle="90.00" type="EBUS2" speed="0.48" pos="160.73" lane="e1to2_0" slope="0.00"/>
        <vehicle id="d9" x="-45.05" y="-1.60" angle="90.00" type="EBUS2" speed="1.04" pos="154.95" lane="e1to2_0" slope="0.00"/>
        <vehicle id="o1" x="-88.72" y="-1.60" angle="90.00" type="EBUS" speed="14.33" pos="111.28" lane="e1to2_0" slope="0.00"/>
    </timestep>
    <timestep time="0.90">
        <vehicle id="d1" x="-0.23" y="-1.60" angle="90.00" type="EBUS2" speed="1.60" pos="199.77" lane="e1to2_0" slope="0.00"/>
        <vehicle id="d10" x="-51.08" y="-1.60" angle="90.00" type="EBUS2" speed="1.67" pos="148.92" lane="e1to2_0" slope="0.00"/>
        <vehicle id="d11" x="-58.14" y="-1.60" angle="90.00" type="EBUS2" speed="2.80" pos="141.86" lane="e1to2_0" slope="0.00"/>
        <vehicle id="d12" x="-66.65" y="-1.60" angle="90.00" type="EBUS2" speed="3.01" pos="133.35" lane="e1to2_0" slope="0.00"/>
        <vehicle id="d2" x="-6.02" y="-1.60" angle="90.00" type="EBUS2" speed="0.94" pos="193.98" lane="e1to2_0" slope="0.00"/>
        <vehicle id="d3" x="-11.63" y="-1.60" angle="90.00" type="EBUS2" speed="0.53" pos="188.37" lane="e1to2_0" slope="0.00"/>
        <vehicle id="d4" x="-17.15" y="-1.60" angle="90.00" type="EBUS2" speed="0.42" pos="182.85" lane="e1to2_0" slope="0.00"/>
        <vehicle id="d5" x="-22.65" y="-1.60" angle="90.00" type="EBUS2" speed="0.40" pos="177.35" lane="e1to2_0" slope="0.00"/>
        <vehicle id="d6" x="-28.16" y="-1.60" angle="90.00" type="EBUS2" speed="0.41" pos="171.84" lane="e1to2_0" slope="0.00"/>
        <vehicle id="d7" x="-33.68" y="-1.60" angle="90.00" type="EBUS2" speed="0.45" pos="166.32" lane="e1to2_0" slope="0.00"/>
        <vehicle id="d8" x="-39.22" y="-1.60" angle="90.00" type="EBUS2" speed="0.48" pos="160.78" lane="e1to2_0" slope="0.00"/>
        <vehicle id="d9" x="-44.95" y="-1.60" angle="90.00" type="EBUS2" speed="0.95" pos="155.05" lane="e1to2_0" slope="0.00"/>
        <vehicle id="o1" x="-87.34" y="-1.60" angle="90.00" type="EBUS" speed="13.78" pos="112.66" lane="e1to2_0" slope="0.00"/>
    </timestep>
    <timestep time="1.00">
        <vehicle id="d1" x="-0.05" y="-1.60" angle="90.00" type="EBUS2" speed="1.80" pos="199.95" lane="e1to2_0" slope="0.00"/>
        <vehicle id="d10" x="-50.92" y="-1.60" angle="90.00" type="EBUS2" speed="1.53" pos="149.08" lane="e1to2_0" slope="0.00"/>
        <vehicle id="d11" x="-57.86" y="-1.60" angle="90.00" type="EBUS2" speed="2.80" pos="142.14" lane="e1to2_0" slope="0.00"/>
        <vehicle id="d12" x="-66.33" y="-1.60" angle="90.00" type="EBUS2" speed="3.21" pos="133.67" lane="e1to2_0" slope="0.00"/>
        <vehicle id="d2" x="-5.91" y="-1.60" angle="90.00" type="EBUS2" speed="1.08" pos="194.09" lane="e1to2_0" slope="0.00"/>
        <vehicle id="d3" x="-11.57" y="-1.60" angle="90.00" type="EBUS2" speed="0.62" pos="188.43" lane="e1to2_0" slope="0.00"/>
        <vehicle id="d4" x="-17.10" y="-1.60" angle="90.00" type="EBUS2" speed="0.44" pos="182.90" lane="e1to2_0" slope="0.00"/>
        <vehicle id="d5" x="-22.61" y="-1.60" angle="90.00" type="EBUS2" speed="0.41" pos="177.39" lane="e1to2_0" slope="0.00"/>
        <vehicle id="d6" x="-28.12" y="-1.60" angle="90.00" type="EBUS2" speed="0.41" pos="171.88" lane="e1to2_0" slope="0.00"/>
        <vehicle id="d7" x="-33.64" y="-1.60" angle="90.00" type="EBUS2" speed="0.44" pos="166.36" lane="e1to2_0" slope="0.00"/>
        <vehicle id="d8" x="-39.17" y="-1.60" angle="90.00" type="EBUS2" speed="0.47" pos="160.83" lane="e1to2_0" slope="0.00"/>
        <vehicle id="d9" x="-44.86" y="-1.60" angle="90.00" type="EBUS2" speed="0.86" pos="155.14" lane="e1to2_0" slope="0.00"/>
        <vehicle id="o1" x="-86.01" y="-1.60" angle="90.00" type="EBUS" speed="13.26" pos="113.99" lane="e1to2_0" slope="0.00"/>
    </timestep>
    <timestep time="1.10">
        <vehicle id="d1" x="0.05" y="-1.60" angle="90.00" type="EBUS2" speed="2.00" pos="0.05" lane="e2to3_0" slope="0.00"/>
        <vehicle id="d10" x="-50.78" y="-1.60" angle="90.00" type="EBUS2" speed="1.41" pos="149.22" lane="e1to2_0" slope="0.00"/>
        <vehicle id="d11" x="-57.58" y="-1.60" angle="90.00" type="EBUS2" speed="2.80" pos="142.42" lane="e1to2_0" slope="0.00"/>
        <vehicle id="d12" x="-65.99" y="-1.60" angle="90.00" type="EBUS2" speed="3.41" pos="134.01" lane="e1to2_0" slope="0.00"/>
        <vehicle id="d2" x="-5.79" y="-1.60" angle="90.00" type="EBUS2" speed="1.23" pos="194.21" lane="e1to2_0" slope="0.00"/>
        <vehicle id="d3" x="-11.49" y="-1.60" angle="90.00" type="EBUS2" speed="0.74" pos="188.51" lane="e1to2_0" slope="0.00"/>
        <vehicle id="d4" x="-17.06" y="-1.60" angle="90.00" type="EBUS2" speed="0.48" pos="182.94" lane="e1to2_0" slope="0.00"/>
        <vehicle id="d5" x="-22.57" y="-1.60" angle="90.00" type="EBUS2" speed="0.41" pos="177.43" lane="e1to2_0" slope="0.00"/>
        <vehicle id="d6" x="-28.08" y="-1.60" angle="90.00" type="EBUS2" speed="0.41" pos="171.92" lane="e1to2_0" slope="0.00"/>
        <vehicle id="d7" x="-33.59" y="-1.60" angle="90.00" type="EBUS2" speed="0.43" pos="166.41" lane="e1to2_0" slope="0.00"/>
        <vehicle id="d8" x="-39.12" y="-1.60" angle="90.00" type="EBUS2" speed="0.47" pos="160.88" lane="e1to2_0" slope="0.00"/>
        <vehicle id="d9" x="-44.79" y="-1.60" angle="90.00" type="EBUS2" speed="0.79" pos="155.21" lane="e1to2_0" slope="0.00"/>
        <vehicle id="o1" x="-84.74" y="-1.60" angle="90.00" type="EBUS" speed="12.77" pos="115.26" lane="e1to2_0" slope="0.00"/>
    </timestep>
    <timestep time="1.20">
        <vehicle id="d1" x="0.27" y="-1.60" angle="90.00" type="EBUS2" speed="2.19" pos="0.27" lane="e2to3_0" slope="0.00"/>
        <vehicle id="d10" x="-50.65" y="-1.60" angle="90.00" type="EBUS2" speed="1.31" pos="149.35" lane="e1to2_0" slope="0.00"/>
        <vehicle id="d11" x="-57.32" y="-1.60" angle="90.00" type="EBUS2" speed="2.60" pos="142.68" lane="e1to2_0" slope="0.00"/>
        <vehicle id="d12" x="-65.62" y="-1.60" angle="90.00" type="EBUS2" speed="3.61" pos="134.38" lane="e1to2_0" slope="0.00"/>
        <vehicle id="d2" x="-5.65" y="-1.60" angle="90.00" type="EBUS2" speed="1.43" pos="194.35" lane="e1to2_0" slope="0.00"/>
        <vehicle id="d3" x="-11.40" y="-1.60" angle="90.00" type="EBUS2" speed="0.87" pos="188.60" lane="e1to2_0" slope="0.00"/>
        <vehicle id="d4" x="-17.00" y="-1.60" angle="90.00" type="EBUS2" speed="0.53" pos="183.00" lane="e1to2_0" slope="0.00"/>
        <vehicle id="d5" x="-22.53" y="-1.60" angle="90.00" type="EBUS2" speed="0.43" pos="177.47" lane="e1to2_0" slope="0.00"/>
        <vehicle id="d6" x="-28.04" y="-1.60" angle="90.00" type="EBUS2" speed="0.41" pos="171.96" lane="e1to2_0" slope="0.00"/>
        <vehicle id="d7" x="-33.55" y="-1.60" angle="90.00" type="EBUS2" speed="0.43" pos="166.45" lane="e1to2_0" slope="0.00"/>
        <vehicle id="d8" x="-39.08" y="-1.60" angle="90.00" type="EBUS2" speed="0.46" pos="160.92" lane="e1to2_0" slope="0.00"/>
        <vehicle id="d9" x="-44.71" y="-1.60" angle="90.00" type="EBUS2" speed="0.72" pos="155.29" lane="e1to2_0" slope="0.00"/>
        <vehicle id="o1" x="-83.51" y="-1.60" angle="90.00" type="EBUS" speed="12.29" pos="116.49" lane="e1to2_0" slope="0.00"/>
    </timestep>
    <timestep time="1.30">
        <vehicle id="d1" x="0.51" y="-1.60" angle="90.00" type="EBUS2" speed="2.39" pos="0.51" lane="e2to3_0" slope="0.00"/>
        <vehicle id="d10" x="-50.53" y="-1.60" angle="90.00" type="EBUS2" speed="1.21" pos="149.47" lane="e1to2_0" slope="0.00"/>
        <vehicle id="d11" x="-57.08" y="-1.60" angle="90.00" type="EBUS2" speed="2.40" pos="142.92" lane="e1to2_0" slope="0.00"/>
        <vehicle id="d12" x="-65.24" y="-1.60" angle="90.00" type="EBUS2" speed="3.81" pos="134.76" lane="e1to2_0" slope="0.00"/>
        <vehicle id="d2" x="-5.48" y="-1.60" angle="90.00" type="EBUS2" speed="1.62" pos="194.52" lane="e1to2_0" slope="0.00"/>
        <vehicle id="d3" x="-11.31" y="-1.60" angle="90.00" type="EBUS2" speed="1.00" pos="188.69" lane="e1to2_0" slope="0.00"/>
        <vehicle id="d4" x="-16.94" y="-1.60" angle="90.00" type="EBUS2" speed="0.60" pos="183.06" lane="e1to2_0" slope="0.00"/>
        <vehicle id="d5" x="-22.48" y="-1.60" angle="90.00" type="EBUS2" speed="0.45" pos="177.52" lane="e1to2_0" slope="0.00"/>
        <vehicle id="d6" x="-27.99" y="-1.60" angle="90.00" type="EBUS2" speed="0.41" pos="172.01" lane="e1to2_0" slope="0.00"/>
        <vehicle id="d7" x="-33.51" y="-1.60" angle="90.00" type="EBUS2" speed="0.43" pos="166.49" lane="e1to2_0" slope="0.00"/>
        <vehicle id="d8" x="-39.03" y="-1.60" angle="90.00" type="EBUS2" speed="0.45" pos="160.97" lane="e1to2_0" slope="0.00"/>
        <vehicle id="d9" x="-44.65" y="-1.60" angle="90.00" type="EBUS2" speed="0.67" pos="155.35" lane="e1to2_0" slope="0.00"/>
        <vehicle id="o1" x="-82.32" y="-1.60" angle="90.00" type="EBUS" speed="11.84" pos="117.68" lane="e1to2_0" slope="0.00"/>
    </timestep>
    <timestep time="1.40">
        <vehicle id="d1" x="0.77" y="-1.60" angle="90.00" type="EBUS2" speed="2.59" pos="0.77" lane="e2to3_0" slope="0.00"/>
        <vehicle id="d10" x="-50.42" y="-1.60" angle="90.00" type="EBUS2" speed="1.12" pos="149.58" lane="e1to2_0" slope="0.00"/>
        <vehicle id="d11" x="-56.86" y="-1.60" angle="90.00" type="EBUS2" speed="2.21" pos="143.14" lane="e1to2_0" slope="0.00"/>
        <vehicle id="d12" x="-64.84" y="-1.60" angle="90.00" type="EBUS2" speed="4.01" pos="135.16" lane="e1to2_0" slope="0.00"/>
        <vehicle id="d2" x="-5.30" y="-1.60" angle="90.00" type="EBUS2" speed="1.81" pos="194.70" lane="e1to2_0" slope="0.00"/>
        <vehicle id="d3" x="-11.19" y="-1.60" angle="90.00" type="EBUS2" speed="1.13" pos="188.81" lane="e1to2_0" slope="0.00"/>
        <vehicle id="d4" x="-16.88" y="-1.60" angle="90.00" type="EBUS2" speed="0.70" pos="183.12" lane="e1to2_0" slope="0.00"/>
        <vehicle id="d5" x="-22.44" y="-1.60" angle="90.00" type="EBUS2" speed="0.48" pos="177.56" lane="e1to2_0" slope="0.00"/>
        <vehicle id="d6" x="-27.95" y="-1.60" angle="90.00" type="EBUS2" speed="0.42" pos="172.05" lane="e1to2_0" slope="0.00"/>
        <vehicle id="d7" x="-33.46" y="-1.60" angle="90.00" type="EBUS2" speed="0.42" pos="166.54" lane="e1to2_0" slope="0.00"/>
        <vehicle id="d8" x="-38.99" y="-1.60" angle="90.00" type="EBUS2" speed="0.45" pos="161.01" lane="e1to2_0" slope="0.00"/>
        <vehicle id="d9" x="-44.58" y="-1.60" angle="90.00" type="EBUS2" speed="0.63" pos="155.42" lane="e1to2_0" slope="0.00"/>
        <vehicle id="o1" x="-81.18" y="-1.60" angle="90.00" type="EBUS" speed="11.42" pos="118.82" lane="e1to2_0" slope="0.00"/>
    </timestep>
    <timestep time="1.50">
        <vehicle id="d1" x="1.05" y="-1.60" angle="90.00" type="EBUS2" speed="2.79" pos="1.05" lane="e2to3_0" slope="0.00"/>
        <vehicle id="d10" x="-50.31" y="-1.60" angle="90.00" type="EBUS2" speed="1.04" pos="149.69" lane="e1to2_0" slope="0.00"/>
        <vehicle id="d11" x="-56.66" y="-1.60" angle="90.00" type="EBUS2" speed="2.04" pos="143.34" lane="e1to2_0" slope="0.00"/>
        <vehicle id="d12" x="-64.43" y="-1.60" angle="90.00" type="EBUS2" speed="4.17" pos="135.57" lane="e1to2_0" slope="0.00"/>
        <vehicle id="d2" x="-5.11" y="-1.60" angle="90.00" type="EBUS2" speed="1.98" pos="194.89" lane="e1to2_0" slope="0.00"/>
        <vehicle id="d3" x="-11.06" y="-1.60" angle="90.00" type="EBUS2" speed="1.28" pos="188.94" lane="e1to2_0" slope="0.00"/>
        <vehicle id="d4" x="-16.79" y="-1.60" angle="90.00" type="EBUS2" speed="0.81" pos="183.21" lane="e1to2_0" slope="0.00"/>
        <vehicle id="d5" x="-22.38" y="-1.60" angle="90.00" type="EBUS2" speed="0.52" pos="177.62" lane="e1to2_0" slope="0.00"/>
        <vehicle id="d6" x="-27.91" y="-1.60" angle="90.00" type="EBUS2" speed="0.43" pos="172.09" lane="e1to2_0" slope="0.00"/>
        <vehicle id="d7" x="-33.42" y="-1.60" angle="90.00" type="EBUS2" speed="0.42" pos="166.58" lane="e1to2_0" slope="0.00"/>
        <vehicle id="d8" x="-38.94" y="-1.60" angle="90.00" type="EBUS2" speed="0.44" pos="161.06" lane="e1to2_0" slope="0.00"/>
        <vehicle id="d9" x="-44.52" y="-1.60" angle="90.00" type="EBUS2" speed="0.59" pos="155.48" lane="e1to2_0" slope="0.00"/>
        <vehicle id="o1" x="-80.08" y="-1.60" angle="90.00" type="EBUS" speed="11.03" pos="119.92" lane="e1to2_0" slope="0.00"/>
    </timestep>
    <timestep time="1.60">
        <vehicle id="d1" x="1.33" y="-1.60" angle="90.00" type="EBUS2" speed="2.84" pos="1.33" lane="e2to3_0" slope="0.00"/>
        <vehicle id="d10" x="-50.22" y="-1.60" angle="90.00" type="EBUS2" speed="0.96" pos="149.78" lane="e1to2_0" slope="0.00"/>
        <vehicle id="d11" x="-56.47" y="-1.60" angle="90.00" type="EBUS2" speed="1.89" pos="143.53" lane="e1to2_0" slope="0.00"/>
        <vehicle id="d12" x="-64.04" y="-1.60" angle="90.00" type="EBUS2" speed="3.90" pos="135.96" lane="e1to2_0" slope="0.00"/>
        <vehicle id="d2" x="-4.89" y="-1.60" angle="90.00" type="EBUS2" speed="2.17" pos="195.11" lane="e1to2_0" slope="0.00"/>
        <vehicle id="d3" x="-10.92" y="-1.60" angle="90.00" type="EBUS2" speed="1.45" pos="189.08" lane="e1to2_0" slope="0.00"/>
        <vehicle id="d4" x="-16.70" y="-1.60" angle="90.00" type="EBUS2" speed="0.93" pos="183.30" lane="e1to2_0" slope="0.00"/>
        <vehicle id="d5" x="-22.33" y="-1.60" angle="90.00" type="EBUS2" speed="0.58" pos="177.67" lane="e1to2_0" slope="0.00"/>
        <vehicle id="d6" x="-27.86" y="-1.60" angle="90.00" type="EBUS2" speed="0.45" pos="172.14" lane="e1to2_0" slope="0.00"/>
        <vehicle id="d7" x="-33.38" y="-1.60" angle="90.00" type="EBUS2" speed="0.42" pos="166.62" lane="e1to2_0" slope="0.00"/>
        <vehicle id="d8" x="-38.90" y="-1.60" angle="90.00" type="EBUS2" speed="0.44" pos="161.10" lane="e1to2_0" slope="0.00"/>
        <vehicle id="d9" x="-44.47" y="-1.60" angle="90.00" type="EBUS2" speed="0.56" pos="155.53" lane="e1to2_0" slope="0.00"/>
        <vehicle id="o1" x="-79.01" y="-1.60" angle="90.00" type="EBUS" speed="10.66" pos="120.99" lane="e1to2_0" slope="0.00"/>
    </timestep>
    <timestep time="1.70">
        <vehicle id="d1" x="1.61" y="-1.60" angle="90.00" type="EBUS2" speed="2.84" pos="1.61" lane="e2to3_0" slope="0.00"/>
        <vehicle id="d10" x="-50.13" y="-1.60" angle="90.00" type="EBUS2" speed="0.90" pos="149.87" lane="e1to2_0" slope="0.00"/>
        <vehicle id="d11" x="-56.29" y="-1.60" angle="90.00" type="EBUS2" speed="1.74" pos="143.71" lane="e1to2_0" slope="0.00"/>
        <vehicle id="d12" x="-63.67" y="-1.60" angle="90.00" type="EBUS2" speed="3.64" pos="136.33" lane="e1to2_0" slope="0.00"/>
        <vehicle id="d2" x="-4.66" y="-1.60" angle="90.00" type="EBUS2" speed="2.28" pos="195.34" lane="e1to2_0" slope="0.00"/>
        <vehicle id="d3" x="-10.75" y="-1.60" angle="90.00" type="EBUS2" speed="1.64" pos="189.25" lane="e1to2_0" slope="0.00"/>
        <vehicle id="d4" x="-16.60" y="-1.60" angle="90.00" type="EBUS2" speed="1.05" pos="183.40" lane="e1to2_0" slope="0.00"/>
        <vehicle id="d5" x="-22.26" y="-1.60" angle="90.00" type="EBUS2" speed="0.65" pos="177.74" lane="e1to2_0" slope="0.00"/>
        <vehicle id="d6" x="-27.82" y="-1.60" angle="90.00" type="EBUS2" speed="0.47" pos="172.18" lane="e1to2_0" slope="0.00"/>
        <vehicle id="d7" x="-33.34" y="-1.60" angle="90.00" type="EBUS2" speed="0.43" pos="166.66" lane="e1to2_0" slope="0.00"/>