<?xml version="1.0" encoding="UTF-8"?>

<!-- generated on 2023-02-05 01:34:01 by Eclipse SUMO libsumo Version v1_15_0+0841-ec7ac00463d
<configuration xmlns:xsi="http://www.w3.org/2001/XMLSchema-instance" xsi:noNamespaceSchemaLocation="http://sumo.dlr.de/xsd/libsumoConfiguration.xsd">

    <input>
        <net-file value="/home/liuli/SUMONBDT/sumoCfgs1/my1Lane1TLS.net.xml"/>
        <route-files value="/home/liuli/SUMONBDT/sumoCfgs1/m1Lane1Tls.rou.xml"/>
    </input>

    <output>
        <fcd-output value="/home/liuli/SUMONBDT/sumoCfgs1/fcd-output.xml"/>
        <full-output value="/home/liuli/SUMONBDT/sumoCfgs1/full-output.xml"/>
        <summary-output value="/home/liuli/SUMONBDT/sumoCfgs1/summary.xml"/>
    </output>

    <time>
        <begin value="0"/>
        <end value="50"/>
        <step-length value="0.1"/>
    </time>

    <processing>
        <ignore-route-errors value="true"/>
    </processing>

</configuration>
-->

<fcd-export xmlns:xsi="http://www.w3.org/2001/XMLSchema-instance" xsi:noNamespaceSchemaLocation="http://sumo.dlr.de/xsd/fcd_file.xsd">
    <timestep time="0.00"/>
    <timestep time="0.10">
        <vehicle id="d1" x="-1.00" y="-1.60" angle="90.00" type="EBUS2" speed="0.00" pos="199.00" lane="e1to2_0" slope="0.00"/>
        <vehicle id="d2" x="-6.50" y="-1.60" angle="90.00" type="EBUS2" speed="0.00" pos="193.50" lane="e1to2_0" slope="0.00"/>
        <vehicle id="d3" x="-12.00" y="-1.60" angle="90.00" type="EBUS2" speed="0.00" pos="188.00" lane="e1to2_0" slope="0.00"/>
        <vehicle id="d4" x="-17.51" y="-1.60" angle="90.00" type="EBUS2" speed="0.02" pos="182.49" lane="e1to2_0" slope="0.00"/>
        <vehicle id="o1" x="-45.03" y="-1.60" angle="90.00" type="EBUS" speed="13.00" pos="154.97" lane="e1to2_0" slope="0.00"/>
    </timestep>
    <timestep time="0.20">
        <vehicle id="d1" x="-1.00" y="-1.60" angle="90.00" type="EBUS2" speed="0.00" pos="199.00" lane="e1to2_0" slope="0.00"/>
        <vehicle id="d2" x="-6.47" y="-1.60" angle="90.00" type="EBUS2" speed="0.26" pos="193.53" lane="e1to2_0" slope="0.00"/>
        <vehicle id="d3" x="-11.97" y="-1.60" angle="90.00" type="EBUS2" speed="0.26" pos="188.03" lane="e1to2_0" slope="0.00"/>
        <vehicle id="d4" x="-17.48" y="-1.60" angle="90.00" type="EBUS2" speed="0.28" pos="182.52" lane="e1to2_0" slope="0.00"/>
        <vehicle id="o1" x="-43.70" y="-1.60" angle="90.00" type="EBUS" speed="13.27" pos="156.30" lane="e1to2_0" slope="0.00"/>
    </timestep>
    <timestep time="0.30">
        <vehicle id="d1" x="-1.00" y="-1.60" angle="90.00" type="EBUS2" speed="0.00" pos="199.00" lane="e1to2_0" slope="0.00"/>
        <vehicle id="d2" x="-6.44" y="-1.60" angle="90.00" type="EBUS2" speed="0.38" pos="193.56" lane="e1to2_0" slope="0.00"/>
        <vehicle id="d3" x="-11.93" y="-1.60" angle="90.00" type="EBUS2" speed="0.44" pos="188.07" lane="e1to2_0" slope="0.00"/>
        <vehicle id="d4" x="-17.44" y="-1.60" angle="90.00" type="EBUS2" speed="0.46" pos="182.56" lane="e1to2_0" slope="0.00"/>
        <vehicle id="o1" x="-42.35" y="-1.60" angle="90.00" type="EBUS" speed="13.55" pos="157.65" lane="e1to2_0" slope="0.00"/>
    </timestep>
    <timestep time="0.40">
        <vehicle id="d1" x="-1.00" y="-1.60" angle="90.00" type="EBUS2" speed="0.00" pos="199.00" lane="e1to2_0" slope="0.00"/>
        <vehicle id="d2" x="-6.41" y="-1.60" angle="90.00" type="EBUS2" speed="0.29" pos="193.59" lane="e1to2_0" slope="0.00"/>
        <vehicle id="d3" x="-11.89" y="-1.60" angle="90.00" type="EBUS2" speed="0.42" pos="188.11" lane="e1to2_0" slope="0.00"/>
        <vehicle id="d4" x="-17.39" y="-1.60" angle="90.00" type="EBUS2" speed="0.45" pos="182.61" lane="e1to2_0" slope="0.00"/>
        <vehicle id="o1" x="-40.97" y="-1.60" angle="90.00" type="EBUS" speed="13.82" pos="159.03" lane="e1to2_0" slope="0.00"/>
    </timestep>
    <timestep time="0.50">
        <vehicle id="d1" x="-1.00" y="-1.60" angle="90.00" type="EBUS2" speed="0.00" pos="199.00" lane="e1to2_0" slope="0.00"/>
        <vehicle id="d2" x="-6.39" y="-1.60" angle="90.00" type="EBUS2" speed="0.22" pos="193.61" lane="e1to2_0" slope="0.00"/>
        <vehicle id="d3" x="-11.85" y="-1.60" angle="90.00" type="EBUS2" speed="0.39" pos="188.15" lane="e1to2_0" slope="0.00"/>
        <vehicle id="d4" x="-17.35" y="-1.60" angle="90.00" type="EBUS2" speed="0.44" pos="182.65" lane="e1to2_0" slope="0.00"/>
        <vehicle id="o1" x="-39.56" y="-1.60" angle="90.00" type="EBUS" speed="14.10" pos="160.44" lane="e1to2_0" slope="0.00"/>
    </timestep>
    <timestep time="0.60">
        <vehicle id="d1" x="-1.00" y="-1.60" angle="90.00" type="EBUS2" speed="0.00" pos="199.00" lane="e1to2_0" slope="0.00"/>
        <vehicle id="d2" x="-6.37" y="-1.60" angle="90.00" type="EBUS2" speed="0.17" pos="193.63" lane="e1to2_0" slope="0.00"/>
        <vehicle id="d3" x="-11.81" y="-1.60" angle="90.00" type="EBUS2" speed="0.35" pos="188.19" lane="e1to2_0" slope="0.00"/>
        <vehicle id="d4" x="-17.30" y="-1.60" angle="90.00" type="EBUS2" speed="0.43" pos="182.70" lane="e1to2_0" slope="0.00"/>
        <vehicle id="o1" x="-38.19" y="-1.60" angle="90.00" type="EBUS" speed="13.67" pos="161.81" lane="e1to2_0" slope="0.00"/>
    </timestep>
    <timestep time="0.70">
        <vehicle id="d1" x="-1.00" y="-1.60" angle="90.00" type="EBUS2" speed="0.00" pos="199.00" lane="e1to2_0" slope="0.00"/>
        <vehicle id="d2" x="-6.36" y="-1.60" angle="90.00" type="EBUS2" speed="0.13" pos="193.64" lane="e1to2_0" slope="0.00"/>
        <vehicle id="d3" x="-11.78" y="-1.60" angle="90.00" type="EBUS2" speed="0.31" pos="188.22" lane="e1to2_0" slope="0.00"/>
        <vehicle id="d4" x="-17.26" y="-1.60" angle="90.00" type="EBUS2" speed="0.41" pos="182.74" lane="e1to2_0" slope="0.00"/>
        <vehicle id="o1" x="-36.89" y="-1.60" angle="90.00" type="EBUS" speed="13.03" pos="163.11" lane="e1to2_0" slope="0.00"/>
    </timestep>
    <timestep time="0.80">
        <vehicle id="d1" x="-1.00" y="-1.60" angle="90.00" type="EBUS2" speed="0.00" pos="199.00" lane="e1to2_0" slope="0.00"/>
        <vehicle id="d2" x="-6.35" y="-1.60" angle="90.00" type="EBUS2" speed="0.10" pos="193.65" lane="e1to2_0" slope="0.00"/>
        <vehicle id="d3" x="-11.76" y="-1.60" angle="90.00" type="EBUS2" speed="0.27" pos="188.24" lane="e1to2_0" slope="0.00"/>
        <vehicle id="d4" x="-17.22" y="-1.60" angle="90.00" type="EBUS2" speed="0.39" pos="182.78" lane="e1to2_0" slope="0.00"/>
        <vehicle id="o1" x="-35.65" y="-1.60" angle="90.00" type="EBUS" speed="12.39" pos="164.35" lane="e1to2_0" slope="0.00"/>
    </timestep>
    <timestep time="0.90">
        <vehicle id="d1" x="-1.00" y="-1.60" angle="90.00" type="EBUS2" speed="0.00" pos="199.00" lane="e1to2_0" slope="0.00"/>
        <vehicle id="d2" x="-6.34" y="-1.60" angle="90.00" type="EBUS2" speed="0.07" pos="193.66" lane="e1to2_0" slope="0.00"/>
        <vehicle id="d3" x="-11.73" y="-1.60" angle="90.00" type="EBUS2" speed="0.23" pos="188.27" lane="e1to2_0" slope="0.00"/>
        <vehicle id="d4" x="-17.19" y="-1.60" angle="90.00" type="EBUS2" speed="0.36" pos="182.81" lane="e1to2_0" slope="0.00"/>
        <vehicle id="o1" x="-34.47" y="-1.60" angle="90.00" type="EBUS" speed="11.77" pos="165.53" lane="e1to2_0" slope="0.00"/>
    </timestep>
    <timestep time="1.00">
        <vehicle id="d1" x="-1.00" y="-1.60" angle="90.00" type="EBUS2" speed="0.00" pos="199.00" lane="e1to2_0" slope="0.00"/>
        <vehicle id="d2" x="-6.33" y="-1.60" angle="90.00" type="EBUS2" speed="0.06" pos="193.67" lane="e1to2_0" slope="0.00"/>
        <vehicle id="d3" x="-11.72" y="-1.60" angle="90.00" type="EBUS2" speed="0.19" pos="188.28" lane="e1to2_0" slope="0.00"/>
        <vehicle id="d4" x="-17.15" y="-1.60" angle="90.00" type="EBUS2" speed="0.33" pos="182.85" lane="e1to2_0" slope="0.00"/>
        <vehicle id="o1" x="-33.36" y="-1.60" angle="90.00" type="EBUS" speed="11.15" pos="166.64" lane="e1to2_0" slope="0.00"/>
    </timestep>
    <timestep time="1.10">
        <vehicle id="d1" x="-1.00" y="-1.60" angle="90.00" type="EBUS2" speed="0.00" pos="199.00" lane="e1to2_0" slope="0.00"/>
        <vehicle id="d2" x="-6.33" y="-1.60" angle="90.00" type="EBUS2" speed="0.04" pos="193.67" lane="e1to2_0" slope="0.00"/>
        <vehicle id="d3" x="-11.70" y="-1.60" angle="90.00" type="EBUS2" speed="0.16" pos="188.30" lane="e1to2_0" slope="0.00"/>
        <vehicle id="d4" x="-17.13" y="-1.60" angle="90.00" type="EBUS2" speed="0.30" pos="182.87" lane="e1to2_0" slope="0.00"/>
        <vehicle id="o1" x="-32.30" y="-1.60" angle="90.00" type="EBUS" speed="10.52" pos="167.70" lane="e1to2_0" slope="0.00"/>
    </timestep>
    <timestep time="1.20">
        <vehicle id="d1" x="-1.00" y="-1.60" angle="90.00" type="EBUS2" speed="0.00" pos="199.00" lane="e1to2_0" slope="0.00"/>
        <vehicle id="d2" x="-6.33" y="-1.60" angle="90.00" type="EBUS2" speed="0.03" pos="193.67" lane="e1to2_0" slope="0.00"/>
        <vehicle id="d3" x="-11.69" y="-1.60" angle="90.00" type="EBUS2" speed="0.13" pos="188.31" lane="e1to2_0" slope="0.00"/>
        <vehicle id="d4" x="-17.10" y="-1.60" angle="90.00" type="EBUS2" speed="0.26" pos="182.90" lane="e1to2_0" slope="0.00"/>
        <vehicle id="o1" x="-31.31" y="-1.60" angle="90.00" type="EBUS" speed="9.91" pos="168.69" lane="e1to2_0" slope="0.00"/>
    </timestep>
    <timestep time="1.30">
        <vehicle id="d1" x="-1.00" y="-1.60" angle="90.00" type="EBUS2" speed="0.00" pos="199.00" lane="e1to2_0" slope="0.00"/>
        <vehicle id="d2" x="-6.32" y="-1.60" angle="90.00" type="EBUS2" speed="0.03" pos="193.68" lane="e1to2_0" slope="0.00"/>
        <vehicle id="d3" x="-11.68" y="-1.60" angle="90.00" type="EBUS2" speed="0.11" pos="188.32" lane="e1to2_0" slope="0.00"/>
        <vehicle id="d4" x="-17.08" y="-1.60" angle="90.00" type="EBUS2" speed="0.23" pos="182.92" lane="e1to2_0" slope="0.00"/>
        <vehicle id="o1" x="-30.38" y="-1.60" angle="90.00" type="EBUS" speed="9.31" pos="169.62" lane="e1to2_0" slope="0.00"/>
    </timestep>
    <timestep time="1.40">
        <vehicle id="d1" x="-1.00" y="-1.60" angle="90.00" type="EBUS2" speed="0.00" pos="199.00" lane="e1to2_0" slope="0.00"/>
        <vehicle id="d2" x="-6.32" y="-1.60" angle="90.00" type="EBUS2" speed="0.02" pos="193.68" lane="e1to2_0" slope="0.00"/>
        <vehicle id="d3" x="-11.67" y="-1.60" angle="90.00" type="EBUS2" speed="0.09" pos="188.33" lane="e1to2_0" slope="0.00"/>
        <vehicle id="d4" x="-17.06" y="-1.60" angle="90.00" type="EBUS2" speed="0.20" pos="182.94" lane="e1to2_0" slope="0.00"/>
        <vehicle id="o1" x="-29.51" y="-1.60" angle="90.00" type="EBUS" speed="8.72" pos="170.49" lane="e1to2_0" slope="0.00"/>
    </timestep>
    <timestep time="1.50">
        <vehicle id="d1" x="-1.00" y="-1.60" angle="90.00" type="EBUS2" speed="0.00" pos="199.00" lane="e1to2_0" slope="0.00"/>
        <vehicle id="d2" x="-6.32" y="-1.60" angle="90.00" type="EBUS2" speed="0.01" pos="193.68" lane="e1to2_0" slope="0.00"/>
        <vehicle id="d3" x="-11.66" y="-1.60" angle="90.00" type="EBUS2" speed="0.07" pos="188.34" lane="e1to2_0" slope="0.00"/>
        <vehicle id="d4" x="-17.04" y="-1.60" angle="90.00" type="EBUS2" speed="0.18" pos="182.96" lane="e1to2_0" slope="0.00"/>
        <vehicle id="o1" x="-28.70" y="-1.60" angle="90.00" type="EBUS" speed="8.12" pos="171.30" lane="e1to2_0" slope="0.00"/>
    </timestep>
    <timestep time="1.60">
        <vehicle id="d1" x="-1.00" y="-1.60" angle="90.00" type="EBUS2" speed="0.00" pos="199.00" lane="e1to2_0" slope="0.00"/>
        <vehicle id="d2" x="-6.32" y="-1.60" angle="90.00" type="EBUS2" speed="0.01" pos="193.68" lane="e1to2_0" slope="0.00"/>
        <vehicle id="d3" x="-11.65" y="-1.60" angle="90.00" type="EBUS2" speed="0.06" pos="188.35" lane="e1to2_0" slope="0.00"/>
        <vehicle id="d4" x="-17.02" y="-1.60" angle="90.00" type="EBUS2" speed="0.15" pos="182.98" lane="e1to2_0" slope="0.00"/>
        <vehicle id="o1" x="-27.94" y="-1.60" angle="90.00" type="EBUS" speed="7.54" pos="172.06" lane="e1to2_0" slope="0.00"/>
    </timestep>
    <timestep time="1.70">
        <vehicle id="d1" x="-1.00" y="-1.60" angle="90.00" type="EBUS2" speed="0.00" pos="199.00" lane="e1to2_0" slope="0.00"/>
        <vehicle id="d2" x="-6.32" y="-1.60" angle="90.00" type="EBUS2" speed="0.01" pos="193.68" lane="e1to2_0" slope="0.00"/>
        <vehicle id="d3" x="-11.65" y="-1.60" angle="90.00" type="EBUS2" speed="0.05" pos="188.35" lane="e1to2_0" slope="0.00"/>
        <vehicle id="d4" x="-17.01" y="-1.60" angle="90.00" type="EBUS2" speed="0.13" pos="182.99" lane="e1to2_0" slope="0.00"/>
        <vehicle id="o1" x="-27.24" y="-1.60" angle="90.00" type="EBUS" speed="6.98" pos="172.76" lane="e1to2_0" slope="0.00"/>
    </timestep>
    <timestep time="1.80">
        <vehicle id="d1" x="-1.00" y="-1.60" angle="90.00" type="EBUS2" speed="0.00" pos="199.00" lane="e1to2_0" slope="0.00"/>
        <vehicle id="d2" x="-6.32" y="-1.60" angle="90.00" type="EBUS2" speed="0.01" pos="193.68" lane="e1to2_0" slope="0.00"/>
        <vehicle id="d3" x="-11.64" y="-1.60" angle="90.00" type="EBUS2" speed="0.04" pos="188.36" lane="e1to2_0" slope="0.00"/>
        <vehicle id="d4" x="-17.00" y="-1.60" angle="90.00" type="EBUS2" speed="0.11" pos="183.00" lane="e1to2_0" slope="0.00"/>
        <vehicle id="o1" x="-26.60" y="-1.60" angle="90.00" type="EBUS" speed="6.42" pos="173.40" lane="e1to2_0" slope="0.00"/>
    </timestep>
    <timestep time="1.90">
        <vehicle id="d1" x="-0.97" y="-1.60" angle="90.00" type="EBUS2" speed="0.26" pos="199.03" lane="e1to2_0" slope="0.00"/>
        <vehicle id="d2" x="-6.32" y="-1.60" angle="90.00" type="EBUS2" speed="0.01" pos="193.68" lane="e1to2_0" slope="0.00"/>
        <vehicle id="d3" x="-11.64" y="-1.60" angle="90.00" type="EBUS2" speed="0.03" pos="188.36" lane="e1to2_0" slope="0.00"/>
        <vehicle id="d4" x="-16.99" y="-1.60" angle="90.00" type="EBUS2" speed="0.09" pos="183.01" lane="e1to2_0" slope="0.00"/>
        <vehicle id="o1" x="-26.02" y="-1.60" angle="90.00" type="EBUS" speed="5.87" pos="173.98" lane="e1to2_0" slope="0.00"/>
    </timestep>
    <timestep time="2.00">
        <vehicle id="d1" x="-0.92" y="-1.60" angle="90.00" type="EBUS2" speed="0.52" pos="199.08" lane="e1to2_0" slope="0.00"/>
        <vehicle id="d2" x="-6.31" y="-1.60" angle="90.00" type="EBUS2" speed="0.06" pos="193.69" lane="e1to2_0" slope="0.00"/>
        <vehicle id="d3" x="-11.64" y="-1.60" angle="90.00" type="EBUS2" speed="0.02" pos="188.36" lane="e1to2_0" slope="0.00"/>
        <vehicle id="d4" x="-16.98" y="-1.60" angle="90.00" type="EBUS2" speed="0.08" pos="183.02" lane="e1to2_0" slope="0.00"/>
        <vehicle id="o1" x="-25.48" y="-1.60" angle="90.00" type="EBUS" speed="5.34" pos="174.52" lane="e1to2_0" slope="0.00"/>
    </timestep>
    <timestep time="2.10">
        <vehicle id="d1" x="-0.85" y="-1.60" angle="90.00" type="EBUS2" speed="0.77" pos="199.15" lane="e1to2_0" slope="0.00"/>
        <vehicle id="d2" x="-6.29" y="-1.60" angle="90.00" type="EBUS2" speed="0.17" pos="193.71" lane="e1to2_0" slope="0.00"/>
        <vehicle id="d3" x="-11.64" y="-1.60" angle="90.00" type="EBUS2" speed="0.03" pos="188.36" lane="e1to2_0" slope="0.00"/>
        <vehicle id="d4" x="-16.97" y="-1.60" angle="90.00" type="EBUS2" speed="0.07" pos="183.03" lane="e1to2_0" slope="0.00"/>
        <vehicle id="o1" x="-25.00" y="-1.60" angle="90.00" type="EBUS" speed="4.83" pos="175.00" lane="e1to2_0" slope="0.00"/>
    </timestep>
    <timestep time="2.20">
        <vehicle id="d1" x="-0.74" y="-1.60" angle="90.00" type="EBUS2" speed="1.03" pos="199.26" lane="e1to2_0" slope="0.00"/>
        <vehicle id="d2" x="-6.26" y="-1.60" angle="90.00" type="EBUS2" speed="0.31" pos="193.74" lane="e1to2_0" slope="0.00"/>
        <vehicle id="d3" x="-11.63" y="-1.60" angle="90.00" type="EBUS2" speed="0.07" pos="188.37" lane="e1to2_0" slope="0.00"/>
        <vehicle id="d4" x="-16.97" y="-1.60" angle="90.00" type="EBUS2" speed="0.06" pos="183.03" lane="e1to2_0" slope="0.00"/>
        <vehicle id="o1" x="-24.57" y="-1.60" angle="90.00" type="EBUS" speed="4.33" pos="175.43" lane="e1to2_0" slope="0.00"/>
    </timestep>
    <timestep time="2.30">
        <vehicle id="d1" x="-0.61" y="-1.60" angle="90.00" type="EBUS2" speed="1.29" pos="199.39" lane="e1to2_0" slope="0.00"/>
        <vehicle id="d2" x="-6.21" y="-1.60" angle="90.00" type="EBUS2" speed="0.52" pos="193.79" lane="e1to2_0" slope="0.00"/>
        <vehicle id="d3" x="-11.62" y="-1.60" angle="90.00" type="EBUS2" speed="0.12" pos="188.38" lane="e1to2_0" slope="0.00"/>
        <vehicle id="d4" x="-16.96" y="-1.60" angle="90.00" type="EBUS2" speed="0.06" pos="183.04" lane="e1to2_0" slope="0.00"/>
        <vehicle id="o1" x="-24.18" y="-1.60" angle="90.00" type="EBUS" speed="3.86" pos="175.82" lane="e1to2_0" slope="0.00"/>
    </timestep>
    <timestep time="2.40">
        <vehicle id="d1" x="-0.46" y="-1.60" angle="90.00" type="EBUS2" speed="1.55" pos="199.54" lane="e1to2_0" slope="0.00"/>
        <vehicle id="d2" x="-6.13" y="-1.60" angle="90.00" type="EBUS2" speed="0.76" pos="193.87" lane="e1to2_0" slope="0.00"/>
        <vehicle id="d3" x="-11.59" y="-1.60" angle="90.00" type="EBUS2" speed="0.22" pos="188.41" lane="e1to2_0" slope="0.00"/>
        <vehicle id="d4" x="-16.96" y="-1.60" angle="90.00" type="EBUS2" speed="0.08" pos="183.04" lane="e1to2_0" slope="0.00"/>
        <vehicle id="o1" x="-23.84" y="-1.60" angle="90.00" type="EBUS" speed="3.40" pos="176.16" lane="e1to2_0" slope="0.00"/>
    </timestep>
    <timestep time="2.50">
        <vehicle id="d1" x="-0.28" y="-1.60" angle="90.00" type="EBUS2" speed="1.81" pos="199.72" lane="e1to2_0" slope="0.00"/>
        <vehicle id="d2" x="-6.03" y="-1.60" angle="90.00" type="EBUS2" speed="0.98" pos="193.97" lane="e1to2_0" slope="0.00"/>
        <vehicle id="d3" x="-11.56" y="-1.60" angle="90.00" type="EBUS2" speed="0.35" pos="188.44" lane="e1to2_0" slope="0.00"/>
        <vehicle id="d4" x="-16.94" y="-1.60" angle="90.00" type="EBUS2" speed="0.11" pos="183.06" lane="e1to2_0" slope="0.00"/>
        <vehicle id="o1" x="-23.54" y="-1.60" angle="90.00" type="EBUS" speed="2.97" pos="176.46" lane="e1to2_0" slope="0.00"/>
    </timestep>
    <timestep time="2.60">
        <vehicle id="d1" x="-0.07" y="-1.60" angle="90.00" type="EBUS2" speed="2.07" pos="199.93" lane="e1to2_0" slope="0.00"/>
        <vehicle id="d2" x="-5.92" y="-1.60" angle="90.00" type="EBUS2" speed="1.20" pos="194.08" lane="e1to2_0" slope="0.00"/>
        <vehicle id="d3" x="-11.51" y="-1.60" angle="90.00" type="EBUS2" speed="0.52" pos="188.49" lane="e1to2_0" slope="0.00"/>
        <vehicle id="d4" x="-16.93" y="-1.60" angle="90.00" type="EBUS2" speed="0.16" pos="183.07" lane="e1to2_0" slope="0.00"/>
        <vehicle id="o1" x="-23.29" y="-1.60" angle="90.00" type="EBUS" speed="2.58" pos="176.71" lane="e1to2_0" slope="0.00"/>
    </timestep>
    <timestep time="2.70">
        <vehicle id="d1" x="0.06" y="-1.60" angle="90.00" type="EBUS2" speed="2.32" pos="0.06" lane="e2to3_0" slope="0.00"/>
        <vehicle id="d2" x="-5.77" y="-1.60" angle="90.00" type="EBUS2" speed="1.46" pos="194.23" lane="e1to2_0" slope="0.00"/>
        <vehicle id="d3" x="-11.44" y="-1.60" angle="90.00" type="EBUS2" speed="0.73" pos="188.56" lane="e1to2_0" slope="0.00"/>
        <vehicle id="d4" x="-16.90" y="-1.60" angle="90.00" type="EBUS2" speed="0.25" pos="183.10" lane="e1to2_0" slope="0.00"/>
        <vehicle id="o1" x="-23.06" y="-1.60" angle="90.00" type="EBUS" speed="2.23" pos="176.94" lane="e1to2_0" slope="0.00"/>
    </timestep>
    <timestep time="2.80">
        <vehicle id="d1" x="0.32" y="-1.60" angle="90.00" type="EBUS2" speed="2.58" pos="0.32" lane="e2to3_0" slope="0.00"/>
        <vehicle id="d2" x="-5.60" y="-1.60" angle="90.00" type="EBUS2" speed="1.71" pos="194.40" lane="e1to2_0" slope="0.00"/>
        <vehicle id="d3" x="-11.34" y="-1.60" angle="90.00" type="EBUS2" speed="0.95" pos="188.66" lane="e1to2_0" slope="0.00"/>
        <vehicle id="d4" x="-16.87" y="-1.60" angle="90.00" type="EBUS2" speed="0.36" pos="183.13" lane="e1to2_0" slope="0.00"/>
        <vehicle id="o1" x="-22.87" y="-1.60" angle="90.00" type="EBUS" speed="1.91" pos="177.13" lane="e1to2_0" slope="0.00"/>
    </timestep>
    <timestep time="2.90">
        <vehicle id="d1" x="0.60" y="-1.60" angle="90.00" type="EBUS2" speed="2.84" pos="0.60" lane="e2to3_0" slope="0.00"/>
        <vehicle id="d2" x="-5.40" y="-1.60" angle="90.00" type="EBUS2" speed="1.95" pos="194.60" lane="e1to2_0" slope="0.00"/>
        <vehicle id="d3" x="-11.23" y="-1.60" angle="90.00" type="EBUS2" speed="1.14" pos="188.77" lane="e1to2_0" slope="0.00"/>
        <vehicle id="d4" x="-16.82" y="-1.60" angle="90.00" type="EBUS2" speed="0.51" pos="183.18" lane="e1to2_0" slope="0.00"/>
        <vehicle id="o1" x="-22.70" y="-1.60" angle="90.00" type="EBUS" speed="1.67" pos="177.30" lane="e1to2_0" slope="0.00"/>
    </timestep>
    <timestep time="3.00">
        <vehicle id="d1" x="0.91" y="-1.60" angle="90.00" type="EBUS2" speed="3.10" pos="0.91" lane="e2to3_0" slope="0.00"/>
        <vehicle id="d2" x="-5.18" y="-1.60" angle="90.00" type="EBUS2" speed="2.21" pos="194.82" lane="e1to2_0" slope="0.00"/>
        <vehicle id="d3" x="-11.09" y="-1.60" angle="90.00" type="EBUS2" speed="1.38" pos="188.91" lane="e1to2_0" slope="0.00"/>
        <vehicle id="d4" x="-16.74" y="-1.60" angle="90.00" type="EBUS2" speed="0.71" pos="183.26" lane="e1to2_0" slope="0.00"/>
        <vehicle id="o1" x="-22.56" y="-1.60" angle="90.00" type="EBUS" speed="1.46" pos="177.44" lane="e1to2_0" slope="0.00"/>
    </timestep>
    <timestep time="3.10">
        <vehicle id="d1" x="1.25" y="-1.60" angle="90.00" type="EBUS2" speed="3.35" pos="1.25" lane="e2to3_0" slope="0.00"/>
        <vehicle id="d2" x="-4.94" y="-1.60" angle="90.00" type="EBUS2" speed="2.46" pos="195.06" lane="e1to2_0" slope="0.00"/>
        <vehicle id="d3" x="-10.93" y="-1.60" angle="90.00" type="EBUS2" speed="1.63" pos="189.07" lane="e1to2_0" slope="0.00"/>
        <vehicle id="d4" x="-16.65" y="-1.60" angle="90.00" type="EBUS2" speed="0.92" pos="183.35" lane="e1to2_0" slope="0.00"/>
        <vehicle id="o1" x="-22.43" y="-1.60" angle="90.00" type="EBUS" speed="1.32" pos="177.57" lane="e1to2_0" slope="0.00"/>
    </timestep>
    <timestep time="3.20">
        <vehicle id="d1" x="1.61" y="-1.60" angle="90.00" type="EBUS2" speed="3.61" pos="1.61" lane="e2to3_0" slope="0.00"/>
        <vehicle id="d2" x="-4.66" y="-1.60" angle="90.00" type="EBUS2" speed="2.72" pos="195.34" lane="e1to2_0" slope="0.00"/>
        <vehicle id="d3" x="-10.74" y="-1.60" angle="90.00" type="EBUS2" speed="1.87" pos="189.26" lane="e1to2_0" slope="0.00"/>
        <vehicle id="d4" x="-16.54" y="-1.60" angle="90.00" type="EBUS2" speed="1.10" pos="183.46" lane="e1to2_0" slope="0.00"/>
        <vehicle id="o1" x="-22.30" y="-1.60" angle="90.00" type="EBUS" speed="1.27" pos="177.70" lane="e1to2_0" slope="0.00"/>
    </timestep>
    <timestep time="3.30">
        <vehicle id="d1" x="2.00" y="-1.60" angle="90.00" type="EBUS2" speed="3.87" pos="2.00" lane="e2to3_0" slope="0.00"/>
        <vehicle id="d2" x="-4.37" y="-1.60" angle="90.00" type="EBUS2" speed="2.96" pos="195.63" lane="e1to2_0" slope="0.00"/>
        <vehicle id="d3" x="-10.53" y="-1.60" angle="90.00" type="EBUS2" speed="2.10" pos="189.47" lane="e1to2_0" slope="0.00"/>
        <vehicle id="d4" x="-16.41" y="-1.60" angle="90.00" type="EBUS2" speed="1.31" pos="183.59" lane="e1to2_0" slope="0.00"/>
        <vehicle id="o1" x="-22.17" y="-1.60" angle="90.00" type="EBUS" speed="1.27" pos="177.83" lane="e1to2_0" slope="0.00"/>
    </timestep>
    <timestep time="3.40">
        <vehicle id="d1" x="2.41" y="-1.60" angle="90.00" type="EBUS2" speed="4.12" pos="2.41" lane="e2to3_0" slope="0.00"/>
        <vehicle id="d2" x="-4.04" y="-1.60" angle="90.00" type="EBUS2" speed="3.22" pos="195.96" lane="e1to2_0" slope="0.00"/>
        <vehicle id="d3" x="-10.29" y="-1.60" angle="90.00" type="EBUS2" speed="2.35" pos="189.71" lane="e1to2_0" slope="0.00"/>
        <vehicle id="d4" x="-16.26" y="-1.60" angle="90.00" type="EBUS2" speed="1.55" pos="183.74" lane="e1to2_0" slope="0.00"/>
        <vehicle id="o1" x="-22.04" y="-1.60" angle="90.00" type="EBUS" speed="1.32" pos="177.96" lane="e1to2_0" slope="0.00"/>
    </timestep>
    <timestep time="3.50">
        <vehicle id="d1" x="2.85" y="-1.60" angle="90.00" type="EBUS2" speed="4.38" pos="2.85" lane="e2to3_0" slope="0.00"/>
        <vehicle id="d2" x="-3.70" y="-1.60" angle="90.00" type="EBUS2" speed="3.48" pos="196.30" lane="e1to2_0" slope="0.00"/>
        <vehicle id="d3" x="-10.03" y="-1.60" angle="90.00" type="EBUS2" speed="2.61" pos="189.97" lane="e1to2_0" slope="0.00"/>
        <vehicle id="d4" x="-16.08" y="-1.60" angle="90.00" type="EBUS2" speed="1.80" pos="183.92" lane="e1to2_0" slope="0.00"/>
        <vehicle id="o1" x="-21.90" y="-1.60" angle="90.00" type="EBUS" speed="1.41" pos="178.10" lane="e1to2_0" slope="0.00"/>
    </timestep>
    <timestep time="3.60">
        <vehicle id="d1" x="3.31" y="-1.60" angle="90.00" type="EBUS2" speed="4.64" pos="3.31" lane="e2to3_0" slope="0.00"/>
        <vehicle id="d2" x="-3.32" y="-1.60" angle="90.00" type="EBUS2" speed="3.74" pos="196.68" lane="e1to2_0" slope="0.00"/>
        <vehicle id="d3" x="-9.75" y="-1.60" angle="90.00" type="EBUS2" speed="2.85" pos="190.25" lane="e1to2_0" slope="0.00"/>
        <vehicle id="d4" x="-15.88" y="-1.60" angle="90.00" type="EBUS2" speed="2.01" pos="184.12" lane="e1to2_0" slope="0.00"/>
        <vehicle id="o1" x="-21.74" y="-1.60" angle="90.00" type="EBUS" speed="1.57" pos="178.26" lane="e1to2_0" slope="0.00"/>
    </timestep>
    <timestep time="3.70">
        <vehicle id="d1" x="3.80" y="-1.60" angle="90.00" type="EBUS2" speed="4.90" pos="3.80" lane="e2to3_0" slope="0.00"/>
        <vehicle id="d2" x="-2.92" y="-1.60" angle="90.00" type="EBUS2" speed="4.00" pos="197.08" lane="e1to2_0" slope="0.00"/>
        <vehicle id="d3" x="-9.44" y="-1.60" angle="90.00" type="EBUS2" speed="3.11" pos="190.56" lane="e1to2_0" slope="0.00"/>
        <vehicle id="d4" x="-15.65" y="-1.60" angle="90.00" type="EBUS2" speed="2.25" pos="184.35" lane="e1to2_0" slope="0.00"/>
        <vehicle id="o1" x="-21.57" y="-1.60" angle="90.00" type="EBUS" speed="1.71" pos="178.43" lane="e1to2_0" slope="0.00"/>
    </timestep>
    <timestep time="3.80">
        <vehicle id="d1" x="4.31" y="-1.60" angle="90.00" type="EBUS2" speed="5.15" pos="4.31" lane="e2to3_0" slope="0.00"/>
        <vehicle id="d2" x="-2.50" y="-1.60" angle="90.00" type="EBUS2" speed="4.25" pos="197.50" lane="e1to2_0" slope="0.00"/>
        <vehicle id="d3" x="-9.10" y="-1.60" angle="90.00" type="EBUS2" speed="3.36" pos="190.90" lane="e1to2_0" slope="0.00"/>
        <vehicle id="d4" x="-15.40" y="-1.60" angle="90.00" type="EBUS2" speed="2.51" pos="184.60" lane="e1to2_0" slope="0.00"/>
        <vehicle id="o1" x="-21.38" y="-1.60" angle="90.00" type="EBUS" speed="1.87" pos="178.62" lane="e1to2_0" slope="0.00"/>
    </timestep>
    <timestep time="3.90">
        <vehicle id="d1" x="4.86" y="-1.60" angle="90.00" type="EBUS2" speed="5.41" pos="4.86" lane="e2to3_0" slope="0.00"/>
        <vehicle id="d2" x="-2.05" y="-1.60" angle="90.00" type="EBUS2" speed="4.51" pos="197.95" lane="e1to2_0" slope="0.00"/>
        <vehicle id="d3" x="-8.74" y="-1.60" angle="90.00" type="EBUS2" speed="3.62" pos="191.26" lane="e1to2_0" slope="0.00"/>
        <vehicle id="d4" x="-15.13" y="-1.60" angle="90.00" type="EBUS2" speed="2.76" pos="184.87" lane="e1to2_0" slope="0.00"/>
        <vehicle id="o1" x="-21.18" y="-1.60" angle="90.00" type="EBUS" speed="2.08" pos="178.82" lane="e1to2_0" slope="0.00"/>
    </timestep>
    <timestep time="4.00">
        <vehicle id="d1" x="5.42" y="-1.60" angle="90.00" type="EBUS2" speed="5.67" pos="5.42" lane="e2to3_0" slope="0.00"/>
        <vehicle id="d2" x="-1.57" y="-1.60" angle="90.00" type="EBUS2" speed="4.76" pos="198.43" lane="e1to2_0" slope="0.00"/>
        <vehicle id="d3" x="-8.35" y="-1.60" angle="90.00" type="EBUS2" speed="3.87" pos="191.65" lane="e1to2_0" slope="0.00"/>
        <vehicle id="d4" x="-14.83" y="-1.60" angle="90.00" type="EBUS2" speed="2.99" pos="185.17" lane="e1to2_0" slope="0.00"/>
        <vehicle id="o1" x="-20.95" y="-1.60" angle="90.00" type="EBUS" speed="2.30" pos="179.05" lane="e1to2_0" slope="0.00"/>
    </timestep>
    <timestep time="4.10">
        <vehicle id="d1" x="6.01" y="-1.60" angle="90.00" type="EBUS2" speed="5.92" pos="6.01" lane="e2to3_0" slope="0.00"/>
        <vehicle id="d2" x="-1.07" y="-1.60" angle="90.00" type="EBUS2" speed="5.02" pos="198.93" lane="e1to2_0" slope="0.00"/>
        <vehicle id="d3" x="-7.94" y="-1.60" angle="90.00" type="EBUS2" speed="4.12" pos="192.06" lane="e1to2_0" slope="0.00"/>
        <vehicle id="d4" x="-14.50" y="-1.60" angle="90.00" type="EBUS2" speed="3.25" pos="185.50" lane="e1to2_0" slope="0.00"/>
        <vehicle id="o1" x="-20.70" y="-1.60" angle="90.00" type="EBUS" speed="2.50" pos="179.30" lane="e1to2_0" slope="0.00"/>
    </timestep>
    <timestep time="4.20">
        <vehicle id="d1" x="6.63" y="-1.60" angle="90.00" type="EBUS2" speed="6.18" pos="6.63" lane="e2to3_0" slope="0.00"/>
        <vehicle id="d2" x="-0.54" y="-1.60" angle="90.00" type="EBUS2" speed="5.28" pos="199.46" lane="e1to2_0" slope="0.00"/>
        <vehicle id="d3" x="-7.50" y="-1.60" angle="90.00" type="EBUS2" speed="4.38" pos="192.50" lane="e1to2_0" slope="0.00"/>
        <vehicle id="d4" x="-14.15" y="-1.60" angle="90.00" type="EBUS2" speed="3.50" pos="185.85" lane="e1to2_0" slope="0.00"/>
        <vehicle id="o1" x="-20.42" y="-1.60" angle="90.00" type="EBUS" speed="2.73" pos="179.58" lane="e1to2_0" slope="0.00"/>
    </timestep>
    <timestep time="4.30">
        <vehicle id="d1" x="7.28" y="-1.60" angle="90.00" type="EBUS2" speed="6.44" pos="7.28" lane="e2to3_0" slope="0.00"/>