<?xml version="1.0" encoding="UTF-8"?>

<!-- generated on 2023-06-02 20:53:23 by Eclipse SUMO libsumo Version v1_15_0+0841-ec7ac00463d
<configuration xmlns:xsi="http://www.w3.org/2001/XMLSchema-instance" xsi:noNamespaceSchemaLocation="http://sumo.dlr.de/xsd/libsumoConfiguration.xsd">

    <input>
        <net-file value="/home/liuli/myCodes/SUMONBDT//sumoCfgs1/my1Lane1TLS.net.xml"/>
        <route-files value="/home/liuli/myCodes/SUMONBDT//sumoCfgs1/m1Lane1Tls.rou.xml"/>
    </input>

    <output>
        <fcd-output value="/home/liuli/myCodes/SUMONBDT//sumoCfgs1/fcd-output.xml"/>
        <full-output value="/home/liuli/myCodes/SUMONBDT//sumoCfgs1/full-output.xml"/>
        <summary-output value="/home/liuli/myCodes/SUMONBDT//sumoCfgs1/summary.xml"/>
    </output>

    <time>
        <begin value="0"/>
        <end value="50"/>
        <step-length value="0.1"/>
    </time>

    <report>
        <no-warnings value="true"/>
    </report>

</configuration>
-->

<fcd-export xmlns:xsi="http://www.w3.org/2001/XMLSchema-instance" xsi:noNamespaceSchemaLocation="http://sumo.dlr.de/xsd/fcd_file.xsd">
    <timestep time="0.00"/>
    <timestep time="0.10">
        <vehicle id="d1" x="-1.00" y="-1.60" angle="90.00" type="EBUS2" speed="0.00" pos="199.00" lane="e1to2_0" slope="0.00"/>
        <vehicle id="d2" x="-6.50" y="-1.60" angle="90.00" type="EBUS2" speed="0.00" pos="193.50" lane="e1to2_0" slope="0.00"/>
        <vehicle id="o1" x="-12.00" y="-1.60" angle="90.00" type="EBUS" speed="0.00" pos="188.00" lane="e1to2_0" slope="0.00"/>
    </timestep>
    <timestep time="0.20">
        <vehicle id="d1" x="-1.00" y="-1.60" angle="90.00" type="EBUS2" speed="0.00" pos="199.00" lane="e1to2_0" slope="0.00"/>
        <vehicle id="d2" x="-6.48" y="-1.60" angle="90.00" type="EBUS2" speed="0.19" pos="193.52" lane="e1to2_0" slope="0.00"/>
        <vehicle id="o1" x="-11.99" y="-1.60" angle="90.00" type="EBUS" speed="0.12" pos="188.01" lane="e1to2_0" slope="0.00"/>
    </timestep>
    <timestep time="0.30">
        <vehicle id="d1" x="-1.00" y="-1.60" angle="90.00" type="EBUS2" speed="0.00" pos="199.00" lane="e1to2_0" slope="0.00"/>
        <vehicle id="d2" x="-6.44" y="-1.60" angle="90.00" type="EBUS2" speed="0.38" pos="193.56" lane="e1to2_0" slope="0.00"/>
        <vehicle id="o1" x="-11.96" y="-1.60" angle="90.00" type="EBUS" speed="0.24" pos="188.04" lane="e1to2_0" slope="0.00"/>
    </timestep>
    <timestep time="0.40">
        <vehicle id="d1" x="-1.00" y="-1.60" angle="90.00" type="EBUS2" speed="0.00" pos="199.00" lane="e1to2_0" slope="0.00"/>
        <vehicle id="d2" x="-6.40" y="-1.60" angle="90.00" type="EBUS2" speed="0.39" pos="193.60" lane="e1to2_0" slope="0.00"/>
        <vehicle id="o1" x="-11.93" y="-1.60" angle="90.00" type="EBUS" speed="0.36" pos="188.07" lane="e1to2_0" slope="0.00"/>
    </timestep>
    <timestep time="0.50">
        <vehicle id="d1" x="-1.00" y="-1.60" angle="90.00" type="EBUS2" speed="0.00" pos="199.00" lane="e1to2_0" slope="0.00"/>
        <vehicle id="d2" x="-6.38" y="-1.60" angle="90.00" type="EBUS2" speed="0.24" pos="193.62" lane="e1to2_0" slope="0.00"/>
        <vehicle id="o1" x="-11.88" y="-1.60" angle="90.00" type="EBUS" speed="0.48" pos="188.12" lane="e1to2_0" slope="0.00"/>
    </timestep>
    <timestep time="0.60">
        <vehicle id="d1" x="-1.00" y="-1.60" angle="90.00" type="EBUS2" speed="0.00" pos="199.00" lane="e1to2_0" slope="0.00"/>
        <vehicle id="d2" x="-6.36" y="-1.60" angle="90.00" type="EBUS2" speed="0.15" pos="193.64" lane="e1to2_0" slope="0.00"/>
        <vehicle id="o1" x="-11.82" y="-1.60" angle="90.00" type="EBUS" speed="0.60" pos="188.18" lane="e1to2_0" slope="0.00"/>
    </timestep>
    <timestep time="0.70">
        <vehicle id="d1" x="-1.00" y="-1.60" angle="90.00" type="EBUS2" speed="0.00" pos="199.00" lane="e1to2_0" slope="0.00"/>
        <vehicle id="d2" x="-6.36" y="-1.60" angle="90.00" type="EBUS2" speed="0.10" pos="193.64" lane="e1to2_0" slope="0.00"/>
        <vehicle id="o1" x="-11.77" y="-1.60" angle="90.00" type="EBUS" speed="0.50" pos="188.23" lane="e1to2_0" slope="0.00"/>
    </timestep>
    <timestep time="0.80">
        <vehicle id="d1" x="-1.00" y="-1.60" angle="90.00" type="EBUS2" speed="0.00" pos="199.00" lane="e1to2_0" slope="0.00"/>
        <vehicle id="d2" x="-6.35" y="-1.60" angle="90.00" type="EBUS2" speed="0.06" pos="193.65" lane="e1to2_0" slope="0.00"/>
        <vehicle id="o1" x="-11.74" y="-1.60" angle="90.00" type="EBUS" speed="0.32" pos="188.26" lane="e1to2_0" slope="0.00"/>
    </timestep>
    <timestep time="0.90">
        <vehicle id="d1" x="-1.00" y="-1.60" angle="90.00" type="EBUS2" speed="0.00" pos="199.00" lane="e1to2_0" slope="0.00"/>
        <vehicle id="d2" x="-6.35" y="-1.60" angle="90.00" type="EBUS2" speed="0.04" pos="193.65" lane="e1to2_0" slope="0.00"/>
        <vehicle id="o1" x="-11.72" y="-1.60" angle="90.00" type="EBUS" speed="0.20" pos="188.28" lane="e1to2_0" slope="0.00"/>
    </timestep>
    <timestep time="1.00">
        <vehicle id="d1" x="-1.00" y="-1.60" angle="90.00" type="EBUS2" speed="0.00" pos="199.00" lane="e1to2_0" slope="0.00"/>
        <vehicle id="d2" x="-6.34" y="-1.60" angle="90.00" type="EBUS2" speed="0.02" pos="193.66" lane="e1to2_0" slope="0.00"/>
        <vehicle id="o1" x="-11.71" y="-1.60" angle="90.00" type="EBUS" speed="0.13" pos="188.29" lane="e1to2_0" slope="0.00"/>
    </timestep>
    <timestep time="1.10">
        <vehicle id="d1" x="-1.00" y="-1.60" angle="90.00" type="EBUS2" speed="0.00" pos="199.00" lane="e1to2_0" slope="0.00"/>
        <vehicle id="d2" x="-6.34" y="-1.60" angle="90.00" type="EBUS2" speed="0.02" pos="193.66" lane="e1to2_0" slope="0.00"/>
        <vehicle id="o1" x="-11.70" y="-1.60" angle="90.00" type="EBUS" speed="0.08" pos="188.30" lane="e1to2_0" slope="0.00"/>
    </timestep>
    <timestep time="1.20">
        <vehicle id="d1" x="-1.00" y="-1.60" angle="90.00" type="EBUS2" speed="0.00" pos="199.00" lane="e1to2_0" slope="0.00"/>
        <vehicle id="d2" x="-6.34" y="-1.60" angle="90.00" type="EBUS2" speed="0.01" pos="193.66" lane="e1to2_0" slope="0.00"/>
        <vehicle id="o1" x="-11.69" y="-1.60" angle="90.00" type="EBUS" speed="0.05" pos="188.31" lane="e1to2_0" slope="0.00"/>
    </timestep>
    <timestep time="1.30">
        <vehicle id="d1" x="-1.00" y="-1.60" angle="90.00" type="EBUS2" speed="0.00" pos="199.00" lane="e1to2_0" slope="0.00"/>
        <vehicle id="d2" x="-6.34" y="-1.60" angle="90.00" type="EBUS2" speed="0.01" pos="193.66" lane="e1to2_0" slope="0.00"/>
        <vehicle id="o1" x="-11.69" y="-1.60" angle="90.00" type="EBUS" speed="0.03" pos="188.31" lane="e1to2_0" slope="0.00"/>
    </timestep>
    <timestep time="1.40">
        <vehicle id="d1" x="-1.00" y="-1.60" angle="90.00" type="EBUS2" speed="0.00" pos="199.00" lane="e1to2_0" slope="0.00"/>
        <vehicle id="d2" x="-6.34" y="-1.60" angle="90.00" type="EBUS2" speed="0.00" pos="193.66" lane="e1to2_0" slope="0.00"/>
        <vehicle id="o1" x="-11.69" y="-1.60" angle="90.00" type="EBUS" speed="0.02" pos="188.31" lane="e1to2_0" slope="0.00"/>
    </timestep>
    <timestep time="1.50">
        <vehicle id="d1" x="-1.00" y="-1.60" angle="90.00" type="EBUS2" speed="0.00" pos="199.00" lane="e1to2_0" slope="0.00"/>
        <vehicle id="d2" x="-6.34" y="-1.60" angle="90.00" type="EBUS2" speed="0.00" pos="193.66" lane="e1to2_0" slope="0.00"/>
        <vehicle id="o1" x="-11.69" y="-1.60" angle="90.00" type="EBUS" speed="0.01" pos="188.31" lane="e1to2_0" slope="0.00"/>
    </timestep>
    <timestep time="1.60">
        <vehicle id="d1" x="-1.00" y="-1.60" angle="90.00" type="EBUS2" speed="0.00" pos="199.00" lane="e1to2_0" slope="0.00"/>
        <vehicle id="d2" x="-6.34" y="-1.60" angle="90.00" type="EBUS2" speed="0.00" pos="193.66" lane="e1to2_0" slope="0.00"/>
        <vehicle id="o1" x="-11.69" y="-1.60" angle="90.00" type="EBUS" speed="0.01" pos="188.31" lane="e1to2_0" slope="0.00"/>
    </timestep>
    <timestep time="1.70">
        <vehicle id="d1" x="-1.00" y="-1.60" angle="90.00" type="EBUS2" speed="0.00" pos="199.00" lane="e1to2_0" slope="0.00"/>
        <vehicle id="d2" x="-6.34" y="-1.60" angle="90.00" type="EBUS2" speed="0.00" pos="193.66" lane="e1to2_0" slope="0.00"/>
        <vehicle id="o1" x="-11.68" y="-1.60" angle="90.00" type="EBUS" speed="0.01" pos="188.32" lane="e1to2_0" slope="0.00"/>
    </timestep>
    <timestep time="1.80">
        <vehicle id="d1" x="-1.00" y="-1.60" angle="90.00" type="EBUS2" speed="0.00" pos="199.00" lane="e1to2_0" slope="0.00"/>
        <vehicle id="d2" x="-6.34" y="-1.60" angle="90.00" type="EBUS2" speed="0.00" pos="193.66" lane="e1to2_0" slope="0.00"/>
        <vehicle id="o1" x="-11.68" y="-1.60" angle="90.00" type="EBUS" speed="0.00" pos="188.32" lane="e1to2_0" slope="0.00"/>
    </timestep>
    <timestep time="1.90">
        <vehicle id="d1" x="-1.00" y="-1.60" angle="90.00" type="EBUS2" speed="0.00" pos="199.00" lane="e1to2_0" slope="0.00"/>
        <vehicle id="d2" x="-6.34" y="-1.60" angle="90.00" type="EBUS2" speed="0.00" pos="193.66" lane="e1to2_0" slope="0.00"/>
        <vehicle id="o1" x="-11.68" y="-1.60" angle="90.00" type="EBUS" speed="0.00" pos="188.32" lane="e1to2_0" slope="0.00"/>
    </timestep>
    <timestep time="2.00">
        <vehicle id="d1" x="-1.00" y="-1.60" angle="90.00" type="EBUS2" speed="0.00" pos="199.00" lane="e1to2_0" slope="0.00"/>
        <vehicle id="d2" x="-6.34" y="-1.60" angle="90.00" type="EBUS2" speed="0.00" pos="193.66" lane="e1to2_0" slope="0.00"/>
        <vehicle id="o1" x="-11.68" y="-1.60" angle="90.00" type="EBUS" speed="0.00" pos="188.32" lane="e1to2_0" slope="0.00"/>
    </timestep>
    <timestep time="2.10">
        <vehicle id="d1" x="-1.00" y="-1.60" angle="90.00" type="EBUS2" speed="0.00" pos="199.00" lane="e1to2_0" slope="0.00"/>
        <vehicle id="d2" x="-6.34" y="-1.60" angle="90.00" type="EBUS2" speed="0.00" pos="193.66" lane="e1to2_0" slope="0.00"/>
        <vehicle id="o1" x="-11.68" y="-1.60" angle="90.00" type="EBUS" speed="0.00" pos="188.32" lane="e1to2_0" slope="0.00"/>
    </timestep>
    <timestep time="2.20">
        <vehicle id="d1" x="-1.00" y="-1.60" angle="90.00" type="EBUS2" speed="0.00" pos="199.00" lane="e1to2_0" slope="0.00"/>
        <vehicle id="d2" x="-6.34" y="-1.60" angle="90.00" type="EBUS2" speed="0.00" pos="193.66" lane="e1to2_0" slope="0.00"/>
        <vehicle id="o1" x="-11.68" y="-1.60" angle="90.00" type="EBUS" speed="0.00" pos="188.32" lane="e1to2_0" slope="0.00"/>
    </timestep>
    <timestep time="2.30">
        <vehicle id="d1" x="-1.00" y="-1.60" angle="90.00" type="EBUS2" speed="0.00" pos="199.00" lane="e1to2_0" slope="0.00"/>
        <vehicle id="d2" x="-6.34" y="-1.60" angle="90.00" type="EBUS2" speed="0.00" pos="193.66" lane="e1to2_0" slope="0.00"/>
        <vehicle id="o1" x="-11.68" y="-1.60" angle="90.00" type="EBUS" speed="0.00" pos="188.32" lane="e1to2_0" slope="0.00"/>
    </timestep>
    <timestep time="2.40">
        <vehicle id="d1" x="-1.00" y="-1.60" angle="90.00" type="EBUS2" speed="0.00" pos="199.00" lane="e1to2_0" slope="0.00"/>
        <vehicle id="d2" x="-6.34" y="-1.60" angle="90.00" type="EBUS2" speed="0.00" pos="193.66" lane="e1to2_0" slope="0.00"/>
        <vehicle id="o1" x="-11.68" y="-1.60" angle="90.00" type="EBUS" speed="0.00" pos="188.32" lane="e1to2_0" slope="0.00"/>
    </timestep>
    <timestep time="2.50">
        <vehicle id="d1" x="-1.00" y="-1.60" angle="90.00" type="EBUS2" speed="0.00" pos="199.00" lane="e1to2_0" slope="0.00"/>
        <vehicle id="d2" x="-6.34" y="-1.60" angle="90.00" type="EBUS2" speed="0.00" pos="193.66" lane="e1to2_0" slope="0.00"/>
        <vehicle id="o1" x="-11.68" y="-1.60" angle="90.00" type="EBUS" speed="0.00" pos="188.32" lane="e1to2_0" slope="0.00"/>
    </timestep>
    <timestep time="2.60">
        <vehicle id="d1" x="-1.00" y="-1.60" angle="90.00" type="EBUS2" speed="0.00" pos="199.00" lane="e1to2_0" slope="0.00"/>
        <vehicle id="d2" x="-6.34" y="-1.60" angle="90.00" type="EBUS2" speed="0.00" pos="193.66" lane="e1to2_0" slope="0.00"/>
        <vehicle id="o1" x="-11.68" y="-1.60" angle="90.00" type="EBUS" speed="0.00" pos="188.32" lane="e1to2_0" slope="0.00"/>
    </timestep>
    <timestep time="2.70">
        <vehicle id="d1" x="-1.00" y="-1.60" angle="90.00" type="EBUS2" speed="0.00" pos="199.00" lane="e1to2_0" slope="0.00"/>
        <vehicle id="d2" x="-6.34" y="-1.60" angle="90.00" type="EBUS2" speed="0.00" pos="193.66" lane="e1to2_0" slope="0.00"/>
        <vehicle id="o1" x="-11.68" y="-1.60" angle="90.00" type="EBUS" speed="0.00" pos="188.32" lane="e1to2_0" slope="0.00"/>
    </timestep>
    <timestep time="2.80">
        <vehicle id="d1" x="-1.00" y="-1.60" angle="90.00" type="EBUS2" speed="0.00" pos="199.00" lane="e1to2_0" slope="0.00"/>
        <vehicle id="d2" x="-6.34" y="-1.60" angle="90.00" type="EBUS2" speed="0.00" pos="193.66" lane="e1to2_0" slope="0.00"/>
        <vehicle id="o1" x="-11.68" y="-1.60" angle="90.00" type="EBUS" speed="0.00" pos="188.32" lane="e1to2_0" slope="0.00"/>
    </timestep>
    <timestep time="2.90">
        <vehicle id="d1" x="-1.00" y="-1.60" angle="90.00" type="EBUS2" speed="0.00" pos="199.00" lane="e1to2_0" slope="0.00"/>
        <vehicle id="d2" x="-6.34" y="-1.60" angle="90.00" type="EBUS2" speed="0.00" pos="193.66" lane="e1to2_0" slope="0.00"/>
        <vehicle id="o1" x="-11.68" y="-1.60" angle="90.00" type="EBUS" speed="0.00" pos="188.32" lane="e1to2_0" slope="0.00"/>
    </timestep>
    <timestep time="3.00">
        <vehicle id="d1" x="-1.00" y="-1.60" angle="90.00" type="EBUS2" speed="0.00" pos="199.00" lane="e1to2_0" slope="0.00"/>
        <vehicle id="d2" x="-6.34" y="-1.60" angle="90.00" type="EBUS2" speed="0.00" pos="193.66" lane="e1to2_0" slope="0.00"/>
        <vehicle id="o1" x="-11.68" y="-1.60" angle="90.00" type="EBUS" speed="0.00" pos="188.32" lane="e1to2_0" slope="0.00"/>
    </timestep>
    <timestep time="3.10">
        <vehicle id="d1" x="-1.00" y="-1.60" angle="90.00" type="EBUS2" speed="0.00" pos="199.00" lane="e1to2_0" slope="0.00"/>
        <vehicle id="d2" x="-6.34" y="-1.60" angle="90.00" type="EBUS2" speed="0.00" pos="193.66" lane="e1to2_0" slope="0.00"/>
        <vehicle id="o1" x="-11.68" y="-1.60" angle="90.00" type="EBUS" speed="0.00" pos="188.32" lane="e1to2_0" slope="0.00"/>
    </timestep>
    <timestep time="3.20">
        <vehicle id="d1" x="-1.00" y="-1.60" angle="90.00" type="EBUS2" speed="0.00" pos="199.00" lane="e1to2_0" slope="0.00"/>
        <vehicle id="d2" x="-6.34" y="-1.60" angle="90.00" type="EBUS2" speed="0.00" pos="193.66" lane="e1to2_0" slope="0.00"/>
        <vehicle id="o1" x="-11.68" y="-1.60" angle="90.00" type="EBUS" speed="0.00" pos="188.32" lane="e1to2_0" slope="0.00"/>
    </timestep>
    <timestep time="3.30">
        <vehicle id="d1" x="-1.00" y="-1.60" angle="90.00" type="EBUS2" speed="0.00" pos="199.00" lane="e1to2_0" slope="0.00"/>
        <vehicle id="d2" x="-6.34" y="-1.60" angle="90.00" type="EBUS2" speed="0.00" pos="193.66" lane="e1to2_0" slope="0.00"/>
        <vehicle id="o1" x="-11.68" y="-1.60" angle="90.00" type="EBUS" speed="0.00" pos="188.32" lane="e1to2_0" slope="0.00"/>
    </timestep>
    <timestep time="3.40">
        <vehicle id="d1" x="-1.00" y="-1.60" angle="90.00" type="EBUS2" speed="0.00" pos="199.00" lane="e1to2_0" slope="0.00"/>
        <vehicle id="d2" x="-6.34" y="-1.60" angle="90.00" type="EBUS2" speed="0.00" pos="193.66" lane="e1to2_0" slope="0.00"/>
        <vehicle id="o1" x="-11.68" y="-1.60" angle="90.00" type="EBUS" speed="0.00" pos="188.32" lane="e1to2_0" slope="0.00"/>
    </timestep>
    <timestep time="3.50">
        <vehicle id="d1" x="-1.00" y="-1.60" angle="90.00" type="EBUS2" speed="0.00" pos="199.00" lane="e1to2_0" slope="0.00"/>
        <vehicle id="d2" x="-6.34" y="-1.60" angle="90.00" type="EBUS2" speed="0.00" pos="193.66" lane="e1to2_0" slope="0.00"/>
        <vehicle id="o1" x="-11.68" y="-1.60" angle="90.00" type="EBUS" speed="0.00" pos="188.32" lane="e1to2_0" slope="0.00"/>
    </timestep>
    <timestep time="3.60">
        <vehicle id="d1" x="-1.00" y="-1.60" angle="90.00" type="EBUS2" speed="0.00" pos="199.00" lane="e1to2_0" slope="0.00"/>
        <vehicle id="d2" x="-6.34" y="-1.60" angle="90.00" type="EBUS2" speed="0.00" pos="193.66" lane="e1to2_0" slope="0.00"/>
        <vehicle id="o1" x="-11.68" y="-1.60" angle="90.00" type="EBUS" speed="0.00" pos="188.32" lane="e1to2_0" slope="0.00"/>
    </timestep>
    <timestep time="3.70">
        <vehicle id="d1" x="-1.00" y="-1.60" angle="90.00" type="EBUS2" speed="0.00" pos="199.00" lane="e1to2_0" slope="0.00"/>
        <vehicle id="d2" x="-6.34" y="-1.60" angle="90.00" type="EBUS2" speed="0.00" pos="193.66" lane="e1to2_0" slope="0.00"/>
        <vehicle id="o1" x="-11.68" y="-1.60" angle="90.00" type="EBUS" speed="0.00" pos="188.32" lane="e1to2_0" slope="0.00"/>
    </timestep>
    <timestep time="3.80">
        <vehicle id="d1" x="-1.00" y="-1.60" angle="90.00" type="EBUS2" speed="0.00" pos="199.00" lane="e1to2_0" slope="0.00"/>
        <vehicle id="d2" x="-6.34" y="-1.60" angle="90.00" type="EBUS2" speed="0.00" pos="193.66" lane="e1to2_0" slope="0.00"/>
        <vehicle id="o1" x="-11.68" y="-1.60" angle="90.00" type="EBUS" speed="0.00" pos="188.32" lane="e1to2_0" slope="0.00"/>
    </timestep>
    <timestep time="3.90">
        <vehicle id="d1" x="-1.00" y="-1.60" angle="90.00" type="EBUS2" speed="0.00" pos="199.00" lane="e1to2_0" slope="0.00"/>
        <vehicle id="d2" x="-6.34" y="-1.60" angle="90.00" type="EBUS2" speed="0.00" pos="193.66" lane="e1to2_0" slope="0.00"/>
        <vehicle id="o1" x="-11.68" y="-1.60" angle="90.00" type="EBUS" speed="0.00" pos="188.32" lane="e1to2_0" slope="0.00"/>
    </timestep>
    <timestep time="4.00">
        <vehicle id="d1" x="-1.00" y="-1.60" angle="90.00" type="EBUS2" speed="0.00" pos="199.00" lane="e1to2_0" slope="0.00"/>
        <vehicle id="d2" x="-6.34" y="-1.60" angle="90.00" type="EBUS2" speed="0.00" pos="193.66" lane="e1to2_0" slope="0.00"/>
        <vehicle id="o1" x="-11.68" y="-1.60" angle="90.00" type="EBUS" speed="0.00" pos="188.32" lane="e1to2_0" slope="0.00"/>
    </timestep>
    <timestep time="4.10">
        <vehicle id="d1" x="-1.00" y="-1.60" angle="90.00" type="EBUS2" speed="0.00" pos="199.00" lane="e1to2_0" slope="0.00"/>
        <vehicle id="d2" x="-6.34" y="-1.60" angle="90.00" type="EBUS2" speed="0.00" pos="193.66" lane="e1to2_0" slope="0.00"/>
        <vehicle id="o1" x="-11.68" y="-1.60" angle="90.00" type="EBUS" speed="0.00" pos="188.32" lane="e1to2_0" slope="0.00"/>
    </timestep>
    <timestep time="4.20">
        <vehicle id="d1" x="-1.00" y="-1.60" angle="90.00" type="EBUS2" speed="0.00" pos="199.00" lane="e1to2_0" slope="0.00"/>
        <vehicle id="d2" x="-6.34" y="-1.60" angle="90.00" type="EBUS2" speed="0.00" pos="193.66" lane="e1to2_0" slope="0.00"/>
        <vehicle id="o1" x="-11.68" y="-1.60" angle="90.00" type="EBUS" speed="0.00" pos="188.32" lane="e1to2_0" slope="0.00"/>
    </timestep>
    <timestep time="4.30">
        <vehicle id="d1" x="-1.00" y="-1.60" angle="90.00" type="EBUS2" speed="0.00" pos="199.00" lane="e1to2_0" slope="0.00"/>
        <vehicle id="d2" x="-6.34" y="-1.60" angle="90.00" type="EBUS2" speed="0.00" pos="193.66" lane="e1to2_0" slope="0.00"/>
        <vehicle id="o1" x="-11.68" y="-1.60" angle="90.00" type="EBUS" speed="0.00" pos="188.32" lane="e1to2_0" slope="0.00"/>
    </timestep>
    <timestep time="4.40">
        <vehicle id="d1" x="-1.00" y="-1.60" angle="90.00" type="EBUS2" speed="0.00" pos="199.00" lane="e1to2_0" slope="0.00"/>
        <vehicle id="d2" x="-6.34" y="-1.60" angle="90.00" type="EBUS2" speed="0.00" pos="193.66" lane="e1to2_0" slope="0.00"/>
        <vehicle id="o1" x="-11.68" y="-1.60" angle="90.00" type="EBUS" speed="0.00" pos="188.32" lane="e1to2_0" slope="0.00"/>
    </timestep>
    <timestep time="4.50">
        <vehicle id="d1" x="-1.00" y="-1.60" angle="90.00" type="EBUS2" speed="0.00" pos="199.00" lane="e1to2_0" slope="0.00"/>
        <vehicle id="d2" x="-6.34" y="-1.60" angle="90.00" type="EBUS2" speed="0.00" pos="193.66" lane="e1to2_0" slope="0.00"/>
        <vehicle id="o1" x="-11.68" y="-1.60" angle="90.00" type="EBUS" speed="0.00" pos="188.32" lane="e1to2_0" slope="0.00"/>
    </timestep>
    <timestep time="4.60">
        <vehicle id="d1" x="-1.00" y="-1.60" angle="90.00" type="EBUS2" speed="0.00" pos="199.00" lane="e1to2_0" slope="0.00"/>
        <vehicle id="d2" x="-6.34" y="-1.60" angle="90.00" type="EBUS2" speed="0.00" pos="193.66" lane="e1to2_0" slope="0.00"/>
        <vehicle id="o1" x="-11.68" y="-1.60" angle="90.00" type="EBUS" speed="0.00" pos="188.32" lane="e1to2_0" slope="0.00"/>
    </timestep>
    <timestep time="4.70">
        <vehicle id="d1" x="-1.00" y="-1.60" angle="90.00" type="EBUS2" speed="0.00" pos="199.00" lane="e1to2_0" slope="0.00"/>
        <vehicle id="d2" x="-6.34" y="-1.60" angle="90.00" type="EBUS2" speed="0.00" pos="193.66" lane="e1to2_0" slope="0.00"/>
        <vehicle id="o1" x="-11.68" y="-1.60" angle="90.00" type="EBUS" speed="0.00" pos="188.32" lane="e1to2_0" slope="0.00"/>
    </timestep>
    <timestep time="4.80">
        <vehicle id="d1" x="-1.00" y="-1.60" angle="90.00" type="EBUS2" speed="0.00" pos="199.00" lane="e1to2_0" slope="0.00"/>
        <vehicle id="d2" x="-6.34" y="-1.60" angle="90.00" type="EBUS2" speed="0.00" pos="193.66" lane="e1to2_0" slope="0.00"/>
        <vehicle id="o1" x="-11.68" y="-1.60" angle="90.00" type="EBUS" speed="0.00" pos="188.32" lane="e1to2_0" slope="0.00"/>
    </timestep>
    <timestep time="4.90">
        <vehicle id="d1" x="-1.00" y="-1.60" angle="90.00" type="EBUS2" speed="0.00" pos="199.00" lane="e1to2_0" slope="0.00"/>
        <vehicle id="d2" x="-6.34" y="-1.60" angle="90.00" type="EBUS2" speed="0.00" pos="193.66" lane="e1to2_0" slope="0.00"/>
        <vehicle id="o1" x="-11.68" y="-1.60" angle="90.00" type="EBUS" speed="0.00" pos="188.32" lane="e1to2_0" slope="0.00"/>
    </timestep>
    <timestep time="5.00">
        <vehicle id="d1" x="-1.00" y="-1.60" angle="90.00" type="EBUS2" speed="0.00" pos="199.00" lane="e1to2_0" slope="0.00"/>
        <vehicle id="d2" x="-6.34" y="-1.60" angle="90.00" type="EBUS2" speed="0.00" pos="193.66" lane="e1to2_0" slope="0.00"/>
        <vehicle id="o1" x="-11.68" y="-1.60" angle="90.00" type="EBUS" speed="0.00" pos="188.32" lane="e1to2_0" slope="0.00"/>
    </timestep>
    <timestep time="5.10">
        <vehicle id="d1" x="-1.00" y="-1.60" angle="90.00" type="EBUS2" speed="0.00" pos="199.00" lane="e1to2_0" slope="0.00"/>
        <vehicle id="d2" x="-6.34" y="-1.60" angle="90.00" type="EBUS2" speed="0.00" pos="193.66" lane="e1to2_0" slope="0.00"/>
        <vehicle id="o1" x="-11.68" y="-1.60" angle="90.00" type="EBUS" speed="0.00" pos="188.32" lane="e1to2_0" slope="0.00"/>
    </timestep>
    <timestep time="5.20">
        <vehicle id="d1" x="-1.00" y="-1.60" angle="90.00" type="EBUS2" speed="0.00" pos="199.00" lane="e1to2_0" slope="0.00"/>
        <vehicle id="d2" x="-6.34" y="-1.60" angle="90.00" type="EBUS2" speed="0.00" pos="193.66" lane="e1to2_0" slope="0.00"/>
        <vehicle id="o1" x="-11.68" y="-1.60" angle="90.00" type="EBUS" speed="0.00" pos="188.32" lane="e1to2_0" slope="0.00"/>
    </timestep>
    <timestep time="5.30">
        <vehicle id="d1" x="-1.00" y="-1.60" angle="90.00" type="EBUS2" speed="0.00" pos="199.00" lane="e1to2_0" slope="0.00"/>
        <vehicle id="d2" x="-6.34" y="-1.60" angle="90.00" type="EBUS2" speed="0.00" pos="193.66" lane="e1to2_0" slope="0.00"/>
        <vehicle id="o1" x="-11.68" y="-1.60" angle="90.00" type="EBUS" speed="0.00" pos="188.32" lane="e1to2_0" slope="0.00"/>
    </timestep>
    <timestep time="5.40">
        <vehicle id="d1" x="-1.00" y="-1.60" angle="90.00" type="EBUS2" speed="0.00" pos="199.00" lane="e1to2_0" slope="0.00"/>
        <vehicle id="d2" x="-6.34" y="-1.60" angle="90.00" type="EBUS2" speed="0.00" pos="193.66" lane="e1to2_0" slope="0.00"/>
        <vehicle id="o1" x="-11.68" y="-1.60" angle="90.00" type="EBUS" speed="0.00" pos="188.32" lane="e1to2_0" slope="0.00"/>
    </timestep>
    <timestep time="5.50">
        <vehicle id="d1" x="-1.00" y="-1.60" angle="90.00" type="EBUS2" speed="0.00" pos="199.00" lane="e1to2_0" slope="0.00"/>
        <vehicle id="d2" x="-6.34" y="-1.60" angle="90.00" type="EBUS2" speed="0.00" pos="193.66" lane="e1to2_0" slope="0.00"/>
        <vehicle id="o1" x="-11.68" y="-1.60" angle="90.00" type="EBUS" speed="0.00" pos="188.32" lane="e1to2_0" slope="0.00"/>
    </timestep>
    <timestep time="5.60">
        <vehicle id="d1" x="-1.00" y="-1.60" angle="90.00" type="EBUS2" speed="0.00" pos="199.00" lane="e1to2_0" slope="0.00"/>
        <vehicle id="d2" x="-6.34" y="-1.60" angle="90.00" type="EBUS2" speed="0.00" pos="193.66" lane="e1to2_0" slope="0.00"/>
        <vehicle id="o1" x="-11.68" y="-1.60" angle="90.00" type="EBUS" speed="0.00" pos="188.32" lane="e1to2_0" slope="0.00"/>
    </timestep>
    <timestep time="5.70">
        <vehicle id="d1" x="-1.00" y="-1.60" angle="90.00" type="EBUS2" speed="0.00" pos="199.00" lane="e1to2_0" slope="0.00"/>
        <vehicle id="d2" x="-6.34" y="-1.60" angle="90.00" type="EBUS2" speed="0.00" pos="193.66" lane="e1to2_0" slope="0.00"/>
        <vehicle id="o1" x="-11.68" y="-1.60" angle="90.00" type="EBUS" speed="0.00" pos="188.32" lane="e1to2_0" slope="0.00"/>
    </timestep>
    <timestep time="5.80">
        <vehicle id="d1" x="-1.00" y="-1.60" angle="90.00" type="EBUS2" speed="0.00" pos="199.00" lane="e1to2_0" slope="0.00"/>
        <vehicle id="d2" x="-6.34" y="-1.60" angle="90.00" type="EBUS2" speed="0.00" pos="193.66" lane="e1to2_0" slope="0.00"/>
        <vehicle id="o1" x="-11.68" y="-1.60" angle="90.00" type="EBUS" speed="0.00" pos="188.32" lane="e1to2_0" slope="0.00"/>
    </timestep>
    <timestep time="5.90">
        <vehicle id="d1" x="-1.00" y="-1.60" angle="90.00" type="EBUS2" speed="0.00" pos="199.00" lane="e1to2_0" slope="0.00"/>
        <vehicle id="d2" x="-6.34" y="-1.60" angle="90.00" type="EBUS2" speed="0.00" pos="193.66" lane="e1to2_0" slope="0.00"/>
        <vehicle id="o1" x="-11.68" y="-1.60" angle="90.00" type="EBUS" speed="0.00" pos="188.32" lane="e1to2_0" slope="0.00"/>
    </timestep>
    <timestep time="6.00">
        <vehicle id="d1" x="-1.00" y="-1.60" angle="90.00" type="EBUS2" speed="0.00" pos="199.00" lane="e1to2_0" slope="0.00"/>
        <vehicle id="d2" x="-6.34" y="-1.60" angle="90.00" type="EBUS2" speed="0.00" pos="193.66" lane="e1to2_0" slope="0.00"/>
        <vehicle id="o1" x="-11.68" y="-1.60" angle="90.00" type="EBUS" speed="0.00" pos="188.32" lane="e1to2_0" slope="0.00"/>
    </timestep>
    <timestep time="6.10">
        <vehicle id="d1" x="-1.00" y="-1.60" angle="90.00" type="EBUS2" speed="0.00" pos="199.00" lane="e1to2_0" slope="0.00"/>
        <vehicle id="d2" x="-6.34" y="-1.60" angle="90.00" type="EBUS2" speed="0.00" pos="193.66" lane="e1to2_0" slope="0.00"/>
        <vehicle id="o1" x="-11.68" y="-1.60" angle="90.00" type="EBUS" speed="0.00" pos="188.32" lane="e1to2_0" slope="0.00"/>
    </timestep>
    <timestep time="6.20">
        <vehicle id="d1" x="-1.00" y="-1.60" angle="90.00" type="EBUS2" speed="0.00" pos="199.00" lane="e1to2_0" slope="0.00"/>
        <vehicle id="d2" x="-6.34" y="-1.60" angle="90.00" type="EBUS2" speed="0.00" pos="193.66" lane="e1to2_0" slope="0.00"/>
        <vehicle id="o1" x="-11.68" y="-1.60" angle="90.00" type="EBUS" speed="0.00" pos="188.32" lane="e1to2_0" slope="0.00"/>
    </timestep>
    <timestep time="6.30">
        <vehicle id="d1" x="-1.00" y="-1.60" angle="90.00" type="EBUS2" speed="0.00" pos="199.00" lane="e1to2_0" slope="0.00"/>
        <vehicle id="d2" x="-6.34" y="-1.60" angle="90.00" type="EBUS2" speed="0.00" pos="193.66" lane="e1to2_0" slope="0.00"/>
        <vehicle id="o1" x="-11.68" y="-1.60" angle="90.00" type="EBUS" speed="0.00" pos="188.32" lane="e1to2_0" slope="0.00"/>
    </timestep>
    <timestep time="6.40">
        <vehicle id="d1" x="-1.00" y="-1.60" angle="90.00" type="EBUS2" speed="0.00" pos="199.00" lane="e1to2_0" slope="0.00"/>
        <vehicle id="d2" x="-6.34" y="-1.60" angle="90.00" type="EBUS2" speed="0.00" pos="193.66" lane="e1to2_0" slope="0.00"/>
        <vehicle id="o1" x="-11.68" y="-1.60" angle="90.00" type="EBUS" speed="0.00" pos="188.32" lane="e1to2_0" slope="0.00"/>
    </timestep>
    <timestep time="6.50">
        <vehicle id="d1" x="-1.00" y="-1.60" angle="90.00" type="EBUS2" speed="0.00" pos="199.00" lane="e1to2_0" slope="0.00"/>
        <vehicle id="d2" x="-6.34" y="-1.60" angle="90.00" type="EBUS2" speed="0.00" pos="193.66" lane="e1to2_0" slope="0.00"/>
        <vehicle id="o1" x="-11.68" y="-1.60" angle="90.00" type="EBUS" speed="0.00" pos="188.32" lane="e1to2_0" slope="0.00"/>
    </timestep>
    <timestep time="6.60">
        <vehicle id="d1" x="-1.00" y="-1.60" angle="90.00" type="EBUS2" speed="0.00" pos="199.00" lane="e1to2_0" slope="0.00"/>
        <vehicle id="d2" x="-6.34" y="-1.60" angle="90.00" type="EBUS2" speed="0.00" pos="193.66" lane="e1to2_0" slope="0.00"/>
        <vehicle id="o1" x="-11.68" y="-1.60" angle="90.00" type="EBUS" speed="0.00" pos="188.32" lane="e1to2_0" slope="0.00"/>
    </timestep>
    <timestep time="6.70">
        <vehicle id="d1" x="-1.00" y="-1.60" angle="90.00" type="EBUS2" speed="0.00" pos="199.00" lane="e1to2_0" slope="0.00"/>
        <vehicle id="d2" x="-6.34" y="-1.60" angle="90.00" type="EBUS2" speed="0.00" pos="193.66" lane="e1to2_0" slope="0.00"/>
        <vehicle id="o1" x="-11.68" y="-1.60" angle="90.00" type="EBUS" speed="0.00" pos="188.32" lane="e1to2_0" slope="0.00"/>
    </timestep>
    <timestep time="6.80">
        <vehicle id="d1" x="-1.00" y="-1.60" angle="90.00" type="EBUS2" speed="0.00" pos="199.00" lane="e1to2_0" slope="0.00"/>