<?xml version="1.0" encoding="UTF-8"?>

<!-- generated on 2023-02-09 00:54:55 by Eclipse SUMO libsumo Version v1_15_0+0841-ec7ac00463d
<configuration xmlns:xsi="http://www.w3.org/2001/XMLSchema-instance" xsi:noNamespaceSchemaLocation="http://sumo.dlr.de/xsd/libsumoConfiguration.xsd">

    <input>
        <net-file value="/home/liuli/SUMONBDT/sumoCfgs1/my1Lane1TLS.net.xml"/>
        <route-files value="/home/liuli/SUMONBDT/sumoCfgs1/m1Lane1Tls.rou.xml"/>
    </input>

    <output>
        <fcd-output value="/home/liuli/SUMONBDT/sumoCfgs1/fcd-output.xml"/>
        <full-output value="/home/liuli/SUMONBDT/sumoCfgs1/full-output.xml"/>
        <summary-output value="/home/liuli/SUMONBDT/sumoCfgs1/summary.xml"/>
    </output>

    <time>
        <begin value="0"/>
        <end value="50"/>
        <step-length value="0.1"/>
    </time>

    <processing>
        <ignore-route-errors value="true"/>
    </processing>

</configuration>
-->

<fcd-export xmlns:xsi="http://www.w3.org/2001/XMLSchema-instance" xsi:noNamespaceSchemaLocation="http://sumo.dlr.de/xsd/fcd_file.xsd">
    <timestep time="0.00"/>
    <timestep time="0.10">
        <vehicle id="d1" x="-1.00" y="-1.60" angle="90.00" type="EBUS2" speed="0.00" pos="199.00" lane="e1to2_0" slope="0.00"/>
        <vehicle id="d2" x="-53.65" y="-1.60" angle="90.00" type="EBUS2" speed="13.22" pos="146.35" lane="e1to2_0" slope="0.00"/>
        <vehicle id="o1" x="-99.52" y="-1.60" angle="90.00" type="EBUS" speed="13.89" pos="100.48" lane="e1to2_0" slope="0.00"/>
    </timestep>
    <timestep time="0.20">
        <vehicle id="d1" x="-0.98" y="-1.60" angle="90.00" type="EBUS2" speed="0.15" pos="199.02" lane="e1to2_0" slope="0.00"/>
        <vehicle id="d2" x="-52.31" y="-1.60" angle="90.00" type="EBUS2" speed="13.37" pos="147.69" lane="e1to2_0" slope="0.00"/>
        <vehicle id="o1" x="-98.12" y="-1.60" angle="90.00" type="EBUS" speed="14.02" pos="101.88" lane="e1to2_0" slope="0.00"/>
    </timestep>
    <timestep time="0.30">
        <vehicle id="d1" x="-0.95" y="-1.60" angle="90.00" type="EBUS2" speed="0.30" pos="199.05" lane="e1to2_0" slope="0.00"/>
        <vehicle id="d2" x="-50.96" y="-1.60" angle="90.00" type="EBUS2" speed="13.52" pos="149.04" lane="e1to2_0" slope="0.00"/>
        <vehicle id="o1" x="-96.70" y="-1.60" angle="90.00" type="EBUS" speed="14.14" pos="103.30" lane="e1to2_0" slope="0.00"/>
    </timestep>
    <timestep time="0.40">
        <vehicle id="d1" x="-0.91" y="-1.60" angle="90.00" type="EBUS2" speed="0.45" pos="199.09" lane="e1to2_0" slope="0.00"/>
        <vehicle id="d2" x="-49.59" y="-1.60" angle="90.00" type="EBUS2" speed="13.67" pos="150.41" lane="e1to2_0" slope="0.00"/>
        <vehicle id="o1" x="-95.28" y="-1.60" angle="90.00" type="EBUS" speed="14.27" pos="104.72" lane="e1to2_0" slope="0.00"/>
    </timestep>
    <timestep time="0.50">
        <vehicle id="d1" x="-0.85" y="-1.60" angle="90.00" type="EBUS2" speed="0.60" pos="199.15" lane="e1to2_0" slope="0.00"/>
        <vehicle id="d2" x="-48.21" y="-1.60" angle="90.00" type="EBUS2" speed="13.82" pos="151.79" lane="e1to2_0" slope="0.00"/>
        <vehicle id="o1" x="-93.84" y="-1.60" angle="90.00" type="EBUS" speed="14.40" pos="106.16" lane="e1to2_0" slope="0.00"/>
    </timestep>
    <timestep time="0.60">
        <vehicle id="d1" x="-0.77" y="-1.60" angle="90.00" type="EBUS2" speed="0.76" pos="199.23" lane="e1to2_0" slope="0.00"/>
        <vehicle id="d2" x="-46.81" y="-1.60" angle="90.00" type="EBUS2" speed="13.97" pos="153.19" lane="e1to2_0" slope="0.00"/>
        <vehicle id="o1" x="-92.38" y="-1.60" angle="90.00" type="EBUS" speed="14.53" pos="107.62" lane="e1to2_0" slope="0.00"/>
    </timestep>
    <timestep time="0.70">
        <vehicle id="d1" x="-0.68" y="-1.60" angle="90.00" type="EBUS2" speed="0.91" pos="199.32" lane="e1to2_0" slope="0.00"/>
        <vehicle id="d2" x="-45.40" y="-1.60" angle="90.00" type="EBUS2" speed="14.12" pos="154.60" lane="e1to2_0" slope="0.00"/>
        <vehicle id="o1" x="-90.92" y="-1.60" angle="90.00" type="EBUS" speed="14.66" pos="109.08" lane="e1to2_0" slope="0.00"/>
    </timestep>
    <timestep time="0.80">
        <vehicle id="d1" x="-0.58" y="-1.60" angle="90.00" type="EBUS2" speed="1.06" pos="199.42" lane="e1to2_0" slope="0.00"/>
        <vehicle id="d2" x="-43.97" y="-1.60" angle="90.00" type="EBUS2" speed="14.27" pos="156.03" lane="e1to2_0" slope="0.00"/>
        <vehicle id="o1" x="-89.44" y="-1.60" angle="90.00" type="EBUS" speed="14.78" pos="110.56" lane="e1to2_0" slope="0.00"/>
    </timestep>
    <timestep time="0.90">
        <vehicle id="d1" x="-0.46" y="-1.60" angle="90.00" type="EBUS2" speed="1.21" pos="199.54" lane="e1to2_0" slope="0.00"/>
        <vehicle id="d2" x="-42.53" y="-1.60" angle="90.00" type="EBUS2" speed="14.42" pos="157.47" lane="e1to2_0" slope="0.00"/>
        <vehicle id="o1" x="-87.95" y="-1.60" angle="90.00" type="EBUS" speed="14.91" pos="112.05" lane="e1to2_0" slope="0.00"/>
    </timestep>
    <timestep time="1.00">
        <vehicle id="d1" x="-0.32" y="-1.60" angle="90.00" type="EBUS2" speed="1.36" pos="199.68" lane="e1to2_0" slope="0.00"/>
        <vehicle id="d2" x="-41.07" y="-1.60" angle="90.00" type="EBUS2" speed="14.58" pos="158.93" lane="e1to2_0" slope="0.00"/>
        <vehicle id="o1" x="-86.44" y="-1.60" angle="90.00" type="EBUS" speed="15.04" pos="113.56" lane="e1to2_0" slope="0.00"/>
    </timestep>
    <timestep time="1.10">
        <vehicle id="d1" x="-0.17" y="-1.60" angle="90.00" type="EBUS2" speed="1.51" pos="199.83" lane="e1to2_0" slope="0.00"/>
        <vehicle id="d2" x="-39.60" y="-1.60" angle="90.00" type="EBUS2" speed="14.73" pos="160.40" lane="e1to2_0" slope="0.00"/>
        <vehicle id="o1" x="-84.93" y="-1.60" angle="90.00" type="EBUS" speed="15.17" pos="115.07" lane="e1to2_0" slope="0.00"/>
    </timestep>
    <timestep time="1.20">
        <vehicle id="d1" x="-0.00" y="-1.60" angle="90.00" type="EBUS2" speed="1.66" pos="200.00" lane="e1to2_0" slope="0.00"/>
        <vehicle id="d2" x="-38.11" y="-1.60" angle="90.00" type="EBUS2" speed="14.88" pos="161.89" lane="e1to2_0" slope="0.00"/>
        <vehicle id="o1" x="-83.40" y="-1.60" angle="90.00" type="EBUS" speed="15.30" pos="116.60" lane="e1to2_0" slope="0.00"/>
    </timestep>
    <timestep time="1.30">
        <vehicle id="d1" x="0.08" y="-1.60" angle="90.00" type="EBUS2" speed="1.81" pos="0.08" lane="e2to3_0" slope="0.00"/>
        <vehicle id="d2" x="-36.61" y="-1.60" angle="90.00" type="EBUS2" speed="15.03" pos="163.39" lane="e1to2_0" slope="0.00"/>
        <vehicle id="o1" x="-81.86" y="-1.60" angle="90.00" type="EBUS" speed="15.42" pos="118.14" lane="e1to2_0" slope="0.00"/>
    </timestep>
    <timestep time="1.40">
        <vehicle id="d1" x="0.27" y="-1.60" angle="90.00" type="EBUS2" speed="1.96" pos="0.27" lane="e2to3_0" slope="0.00"/>
        <vehicle id="d2" x="-35.09" y="-1.60" angle="90.00" type="EBUS2" speed="15.18" pos="164.91" lane="e1to2_0" slope="0.00"/>
        <vehicle id="o1" x="-80.30" y="-1.60" angle="90.00" type="EBUS" speed="15.55" pos="119.70" lane="e1to2_0" slope="0.00"/>
    </timestep>
    <timestep time="1.50">
        <vehicle id="d1" x="0.49" y="-1.60" angle="90.00" type="EBUS2" speed="2.11" pos="0.49" lane="e2to3_0" slope="0.00"/>
        <vehicle id="d2" x="-33.56" y="-1.60" angle="90.00" type="EBUS2" speed="15.33" pos="166.44" lane="e1to2_0" slope="0.00"/>
        <vehicle id="o1" x="-78.73" y="-1.60" angle="90.00" type="EBUS" speed="15.68" pos="121.27" lane="e1to2_0" slope="0.00"/>
    </timestep>
    <timestep time="1.60">
        <vehicle id="d1" x="0.71" y="-1.60" angle="90.00" type="EBUS2" speed="2.26" pos="0.71" lane="e2to3_0" slope="0.00"/>
        <vehicle id="d2" x="-32.01" y="-1.60" angle="90.00" type="EBUS2" speed="15.48" pos="167.99" lane="e1to2_0" slope="0.00"/>
        <vehicle id="o1" x="-77.15" y="-1.60" angle="90.00" type="EBUS" speed="15.81" pos="122.85" lane="e1to2_0" slope="0.00"/>
    </timestep>
    <timestep time="1.70">
        <vehicle id="d1" x="0.95" y="-1.60" angle="90.00" type="EBUS2" speed="2.41" pos="0.95" lane="e2to3_0" slope="0.00"/>
        <vehicle id="d2" x="-30.45" y="-1.60" angle="90.00" type="EBUS2" speed="15.63" pos="169.55" lane="e1to2_0" slope="0.00"/>
        <vehicle id="o1" x="-75.56" y="-1.60" angle="90.00" type="EBUS" speed="15.93" pos="124.44" lane="e1to2_0" slope="0.00"/>
    </timestep>
    <timestep time="1.80">
        <vehicle id="d1" x="1.21" y="-1.60" angle="90.00" type="EBUS2" speed="2.56" pos="1.21" lane="e2to3_0" slope="0.00"/>
        <vehicle id="d2" x="-28.87" y="-1.60" angle="90.00" type="EBUS2" speed="15.78" pos="171.13" lane="e1to2_0" slope="0.00"/>
        <vehicle id="o1" x="-73.95" y="-1.60" angle="90.00" type="EBUS" speed="16.06" pos="126.05" lane="e1to2_0" slope="0.00"/>
    </timestep>
    <timestep time="1.90">
        <vehicle id="d1" x="1.48" y="-1.60" angle="90.00" type="EBUS2" speed="2.71" pos="1.48" lane="e2to3_0" slope="0.00"/>
        <vehicle id="d2" x="-27.28" y="-1.60" angle="90.00" type="EBUS2" speed="15.93" pos="172.72" lane="e1to2_0" slope="0.00"/>
        <vehicle id="o1" x="-72.33" y="-1.60" angle="90.00" type="EBUS" speed="16.19" pos="127.67" lane="e1to2_0" slope="0.00"/>
    </timestep>
    <timestep time="2.00">
        <vehicle id="d1" x="1.77" y="-1.60" angle="90.00" type="EBUS2" speed="2.86" pos="1.77" lane="e2to3_0" slope="0.00"/>
        <vehicle id="d2" x="-25.67" y="-1.60" angle="90.00" type="EBUS2" speed="16.08" pos="174.33" lane="e1to2_0" slope="0.00"/>
        <vehicle id="o1" x="-70.70" y="-1.60" angle="90.00" type="EBUS" speed="16.32" pos="129.30" lane="e1to2_0" slope="0.00"/>
    </timestep>
    <timestep time="2.10">
        <vehicle id="d1" x="2.07" y="-1.60" angle="90.00" type="EBUS2" speed="3.01" pos="2.07" lane="e2to3_0" slope="0.00"/>
        <vehicle id="d2" x="-24.07" y="-1.60" angle="90.00" type="EBUS2" speed="15.99" pos="175.93" lane="e1to2_0" slope="0.00"/>
        <vehicle id="o1" x="-69.06" y="-1.60" angle="90.00" type="EBUS" speed="16.44" pos="130.94" lane="e1to2_0" slope="0.00"/>
    </timestep>
    <timestep time="2.20">
        <vehicle id="d1" x="2.39" y="-1.60" angle="90.00" type="EBUS2" speed="3.17" pos="2.39" lane="e2to3_0" slope="0.00"/>
        <vehicle id="d2" x="-22.52" y="-1.60" angle="90.00" type="EBUS2" speed="15.51" pos="177.48" lane="e1to2_0" slope="0.00"/>
        <vehicle id="o1" x="-67.40" y="-1.60" angle="90.00" type="EBUS" speed="16.57" pos="132.60" lane="e1to2_0" slope="0.00"/>
    </timestep>
    <timestep time="2.30">
        <vehicle id="d1" x="2.72" y="-1.60" angle="90.00" type="EBUS2" speed="3.32" pos="2.72" lane="e2to3_0" slope="0.00"/>
        <vehicle id="d2" x="-21.02" y="-1.60" angle="90.00" type="EBUS2" speed="15.04" pos="178.98" lane="e1to2_0" slope="0.00"/>
        <vehicle id="o1" x="-65.73" y="-1.60" angle="90.00" type="EBUS" speed="16.70" pos="134.27" lane="e1to2_0" slope="0.00"/>
    </timestep>
    <timestep time="2.40">
        <vehicle id="d1" x="3.06" y="-1.60" angle="90.00" type="EBUS2" speed="3.47" pos="3.06" lane="e2to3_0" slope="0.00"/>
        <vehicle id="d2" x="-19.56" y="-1.60" angle="90.00" type="EBUS2" speed="14.58" pos="180.44" lane="e1to2_0" slope="0.00"/>
        <vehicle id="o1" x="-64.05" y="-1.60" angle="90.00" type="EBUS" speed="16.83" pos="135.95" lane="e1to2_0" slope="0.00"/>
    </timestep>
    <timestep time="2.50">
        <vehicle id="d1" x="3.43" y="-1.60" angle="90.00" type="EBUS2" speed="3.62" pos="3.43" lane="e2to3_0" slope="0.00"/>
        <vehicle id="d2" x="-18.14" y="-1.60" angle="90.00" type="EBUS2" speed="14.14" pos="181.86" lane="e1to2_0" slope="0.00"/>
        <vehicle id="o1" x="-62.35" y="-1.60" angle="90.00" type="EBUS" speed="16.95" pos="137.65" lane="e1to2_0" slope="0.00"/>
    </timestep>
    <timestep time="2.60">
        <vehicle id="d1" x="3.80" y="-1.60" angle="90.00" type="EBUS2" speed="3.77" pos="3.80" lane="e2to3_0" slope="0.00"/>
        <vehicle id="d2" x="-16.77" y="-1.60" angle="90.00" type="EBUS2" speed="13.71" pos="183.23" lane="e1to2_0" slope="0.00"/>
        <vehicle id="o1" x="-60.64" y="-1.60" angle="90.00" type="EBUS" speed="17.08" pos="139.36" lane="e1to2_0" slope="0.00"/>
    </timestep>
    <timestep time="2.70">
        <vehicle id="d1" x="4.19" y="-1.60" angle="90.00" type="EBUS2" speed="3.92" pos="4.19" lane="e2to3_0" slope="0.00"/>
        <vehicle id="d2" x="-15.44" y="-1.60" angle="90.00" type="EBUS2" speed="13.30" pos="184.56" lane="e1to2_0" slope="0.00"/>
        <vehicle id="o1" x="-58.92" y="-1.60" angle="90.00" type="EBUS" speed="17.21" pos="141.08" lane="e1to2_0" slope="0.00"/>
    </timestep>
    <timestep time="2.80">
        <vehicle id="d1" x="4.60" y="-1.60" angle="90.00" type="EBUS2" speed="4.07" pos="4.60" lane="e2to3_0" slope="0.00"/>
        <vehicle id="d2" x="-14.15" y="-1.60" angle="90.00" type="EBUS2" speed="12.91" pos="185.85" lane="e1to2_0" slope="0.00"/>
        <vehicle id="o1" x="-57.19" y="-1.60" angle="90.00" type="EBUS" speed="17.34" pos="142.81" lane="e1to2_0" slope="0.00"/>
    </timestep>
    <timestep time="2.90">
        <vehicle id="d1" x="5.02" y="-1.60" angle="90.00" type="EBUS2" speed="4.22" pos="5.02" lane="e2to3_0" slope="0.00"/>
        <vehicle id="d2" x="-12.90" y="-1.60" angle="90.00" type="EBUS2" speed="12.52" pos="187.10" lane="e1to2_0" slope="0.00"/>
        <vehicle id="o1" x="-55.44" y="-1.60" angle="90.00" type="EBUS" speed="17.47" pos="144.56" lane="e1to2_0" slope="0.00"/>
    </timestep>
    <timestep time="3.00">
        <vehicle id="d1" x="5.46" y="-1.60" angle="90.00" type="EBUS2" speed="4.37" pos="5.46" lane="e2to3_0" slope="0.00"/>
        <vehicle id="d2" x="-11.68" y="-1.60" angle="90.00" type="EBUS2" speed="12.17" pos="188.32" lane="e1to2_0" slope="0.00"/>
        <vehicle id="o1" x="-53.68" y="-1.60" angle="90.00" type="EBUS" speed="17.59" pos="146.32" lane="e1to2_0" slope="0.00"/>
    </timestep>
    <timestep time="3.10">
        <vehicle id="d1" x="5.91" y="-1.60" angle="90.00" type="EBUS2" speed="4.52" pos="5.91" lane="e2to3_0" slope="0.00"/>
        <vehicle id="d2" x="-10.50" y="-1.60" angle="90.00" type="EBUS2" speed="11.82" pos="189.50" lane="e1to2_0" slope="0.00"/>
        <vehicle id="o1" x="-51.91" y="-1.60" angle="90.00" type="EBUS" speed="17.72" pos="148.09" lane="e1to2_0" slope="0.00"/>
    </timestep>
    <timestep time="3.20">
        <vehicle id="d1" x="6.38" y="-1.60" angle="90.00" type="EBUS2" speed="4.67" pos="6.38" lane="e2to3_0" slope="0.00"/>
        <vehicle id="d2" x="-9.35" y="-1.60" angle="90.00" type="EBUS2" speed="11.50" pos="190.65" lane="e1to2_0" slope="0.00"/>
        <vehicle id="o1" x="-50.13" y="-1.60" angle="90.00" type="EBUS" speed="17.85" pos="149.87" lane="e1to2_0" slope="0.00"/>
    </timestep>
    <timestep time="3.30">
        <vehicle id="d1" x="6.86" y="-1.60" angle="90.00" type="EBUS2" speed="4.82" pos="6.86" lane="e2to3_0" slope="0.00"/>
        <vehicle id="d2" x="-8.23" y="-1.60" angle="90.00" type="EBUS2" speed="11.19" pos="191.77" lane="e1to2_0" slope="0.00"/>
        <vehicle id="o1" x="-48.33" y="-1.60" angle="90.00" type="EBUS" speed="17.98" pos="151.67" lane="e1to2_0" slope="0.00"/>
    </timestep>
    <timestep time="3.40">
        <vehicle id="d1" x="7.36" y="-1.60" angle="90.00" type="EBUS2" speed="4.97" pos="7.36" lane="e2to3_0" slope="0.00"/>
        <vehicle id="d2" x="-7.14" y="-1.60" angle="90.00" type="EBUS2" speed="10.90" pos="192.86" lane="e1to2_0" slope="0.00"/>
        <vehicle id="o1" x="-46.52" y="-1.60" angle="90.00" type="EBUS" speed="18.10" pos="153.48" lane="e1to2_0" slope="0.00"/>
    </timestep>
    <timestep time="3.50">
        <vehicle id="d1" x="7.87" y="-1.60" angle="90.00" type="EBUS2" speed="5.12" pos="7.87" lane="e2to3_0" slope="0.00"/>
        <vehicle id="d2" x="-6.08" y="-1.60" angle="90.00" type="EBUS2" speed="10.63" pos="193.92" lane="e1to2_0" slope="0.00"/>
        <vehicle id="o1" x="-44.70" y="-1.60" angle="90.00" type="EBUS" speed="18.23" pos="155.30" lane="e1to2_0" slope="0.00"/>
    </timestep>
    <timestep time="3.60">
        <vehicle id="d1" x="8.40" y="-1.60" angle="90.00" type="EBUS2" speed="5.27" pos="8.40" lane="e2to3_0" slope="0.00"/>
        <vehicle id="d2" x="-5.04" y="-1.60" angle="90.00" type="EBUS2" speed="10.38" pos="194.96" lane="e1to2_0" slope="0.00"/>
        <vehicle id="o1" x="-42.86" y="-1.60" angle="90.00" type="EBUS" speed="18.36" pos="157.14" lane="e1to2_0" slope="0.00"/>
    </timestep>
    <timestep time="3.70">
        <vehicle id="d1" x="8.94" y="-1.60" angle="90.00" type="EBUS2" speed="5.42" pos="8.94" lane="e2to3_0" slope="0.00"/>
        <vehicle id="d2" x="-4.03" y="-1.60" angle="90.00" type="EBUS2" speed="10.16" pos="195.97" lane="e1to2_0" slope="0.00"/>
        <vehicle id="o1" x="-41.02" y="-1.60" angle="90.00" type="EBUS" speed="18.42" pos="158.98" lane="e1to2_0" slope="0.00"/>
    </timestep>
    <timestep time="3.80">
        <vehicle id="d1" x="9.50" y="-1.60" angle="90.00" type="EBUS2" speed="5.57" pos="9.50" lane="e2to3_0" slope="0.00"/>
        <vehicle id="d2" x="-3.03" y="-1.60" angle="90.00" type="EBUS2" speed="9.94" pos="196.97" lane="e1to2_0" slope="0.00"/>
        <vehicle id="o1" x="-39.18" y="-1.60" angle="90.00" type="EBUS" speed="18.42" pos="160.82" lane="e1to2_0" slope="0.00"/>
    </timestep>
    <timestep time="3.90">
        <vehicle id="d1" x="10.07" y="-1.60" angle="90.00" type="EBUS2" speed="5.72" pos="10.07" lane="e2to3_0" slope="0.00"/>
        <vehicle id="d2" x="-2.06" y="-1.60" angle="90.00" type="EBUS2" speed="9.75" pos="197.94" lane="e1to2_0" slope="0.00"/>
        <vehicle id="o1" x="-37.34" y="-1.60" angle="90.00" type="EBUS" speed="18.42" pos="162.66" lane="e1to2_0" slope="0.00"/>
    </timestep>
    <timestep time="4.00">
        <vehicle id="d1" x="10.66" y="-1.60" angle="90.00" type="EBUS2" speed="5.88" pos="10.66" lane="e2to3_0" slope="0.00"/>
        <vehicle id="d2" x="-1.10" y="-1.60" angle="90.00" type="EBUS2" speed="9.59" pos="198.90" lane="e1to2_0" slope="0.00"/>
        <vehicle id="o1" x="-35.49" y="-1.60" angle="90.00" type="EBUS" speed="18.42" pos="164.51" lane="e1to2_0" slope="0.00"/>
    </timestep>
    <timestep time="4.10">
        <vehicle id="d1" x="11.26" y="-1.60" angle="90.00" type="EBUS2" speed="6.03" pos="11.26" lane="e2to3_0" slope="0.00"/>
        <vehicle id="d2" x="-0.15" y="-1.60" angle="90.00" type="EBUS2" speed="9.43" pos="199.85" lane="e1to2_0" slope="0.00"/>
        <vehicle id="o1" x="-33.65" y="-1.60" angle="90.00" type="EBUS" speed="18.42" pos="166.35" lane="e1to2_0" slope="0.00"/>
    </timestep>
    <timestep time="4.20">
        <vehicle id="d1" x="11.88" y="-1.60" angle="90.00" type="EBUS2" speed="6.18" pos="11.88" lane="e2to3_0" slope="0.00"/>
        <vehicle id="d2" x="0.68" y="-1.60" angle="90.00" type="EBUS2" speed="9.30" pos="0.68" lane="e2to3_0" slope="0.00"/>
        <vehicle id="o1" x="-31.81" y="-1.60" angle="90.00" type="EBUS" speed="18.42" pos="168.19" lane="e1to2_0" slope="0.00"/>
    </timestep>
    <timestep time="4.30">
        <vehicle id="d1" x="12.51" y="-1.60" angle="90.00" type="EBUS2" speed="6.33" pos="12.51" lane="e2to3_0" slope="0.00"/>
        <vehicle id="d2" x="1.59" y="-1.60" angle="90.00" type="EBUS2" speed="9.18" pos="1.59" lane="e2to3_0" slope="0.00"/>
        <vehicle id="o1" x="-29.97" y="-1.60" angle="90.00" type="EBUS" speed="18.42" pos="170.03" lane="e1to2_0" slope="0.00"/>
    </timestep>
    <timestep time="4.40">
        <vehicle id="d1" x="13.16" y="-1.60" angle="90.00" type="EBUS2" speed="6.48" pos="13.16" lane="e2to3_0" slope="0.00"/>
        <vehicle id="d2" x="2.50" y="-1.60" angle="90.00" type="EBUS2" speed="9.09" pos="2.50" lane="e2to3_0" slope="0.00"/>
        <vehicle id="o1" x="-28.13" y="-1.60" angle="90.00" type="EBUS" speed="18.42" pos="171.87" lane="e1to2_0" slope="0.00"/>
    </timestep>
    <timestep time="4.50">
        <vehicle id="d1" x="13.82" y="-1.60" angle="90.00" type="EBUS2" speed="6.63" pos="13.82" lane="e2to3_0" slope="0.00"/>
        <vehicle id="d2" x="3.40" y="-1.60" angle="90.00" type="EBUS2" speed="9.01" pos="3.40" lane="e2to3_0" slope="0.00"/>
        <vehicle id="o1" x="-26.29" y="-1.60" angle="90.00" type="EBUS" speed="18.42" pos="173.71" lane="e1to2_0" slope="0.00"/>
    </timestep>
    <timestep time="4.60">
        <vehicle id="d1" x="14.50" y="-1.60" angle="90.00" type="EBUS2" speed="6.78" pos="14.50" lane="e2to3_0" slope="0.00"/>
        <vehicle id="d2" x="4.30" y="-1.60" angle="90.00" type="EBUS2" speed="8.94" pos="4.30" lane="e2to3_0" slope="0.00"/>
        <vehicle id="o1" x="-24.44" y="-1.60" angle="90.00" type="EBUS" speed="18.42" pos="175.56" lane="e1to2_0" slope="0.00"/>
    </timestep>
    <timestep time="4.70">
        <vehicle id="d1" x="15.19" y="-1.60" angle="90.00" type="EBUS2" speed="6.93" pos="15.19" lane="e2to3_0" slope="0.00"/>
        <vehicle id="d2" x="5.19" y="-1.60" angle="90.00" type="EBUS2" speed="8.89" pos="5.19" lane="e2to3_0" slope="0.00"/>
        <vehicle id="o1" x="-22.60" y="-1.60" angle="90.00" type="EBUS" speed="18.42" pos="177.40" lane="e1to2_0" slope="0.00"/>
    </timestep>
    <timestep time="4.80">
        <vehicle id="d1" x="15.90" y="-1.60" angle="90.00" type="EBUS2" speed="7.08" pos="15.90" lane="e2to3_0" slope="0.00"/>
        <vehicle id="d2" x="6.07" y="-1.60" angle="90.00" type="EBUS2" speed="8.86" pos="6.07" lane="e2to3_0" slope="0.00"/>
        <vehicle id="o1" x="-20.76" y="-1.60" angle="90.00" type="EBUS" speed="18.42" pos="179.24" lane="e1to2_0" slope="0.00"/>
    </timestep>
    <timestep time="4.90">
        <vehicle id="d1" x="16.62" y="-1.60" angle="90.00" type="EBUS2" speed="7.23" pos="16.62" lane="e2to3_0" slope="0.00"/>
        <vehicle id="d2" x="6.96" y="-1.60" angle="90.00" type="EBUS2" speed="8.85" pos="6.96" lane="e2to3_0" slope="0.00"/>
        <vehicle id="o1" x="-18.92" y="-1.60" angle="90.00" type="EBUS" speed="18.42" pos="181.08" lane="e1to2_0" slope="0.00"/>
    </timestep>
    <timestep time="5.00">
        <vehicle id="d1" x="17.36" y="-1.60" angle="90.00" type="EBUS2" speed="7.38" pos="17.36" lane="e2to3_0" slope="0.00"/>
        <vehicle id="d2" x="7.84" y="-1.60" angle="90.00" type="EBUS2" speed="8.84" pos="7.84" lane="e2to3_0" slope="0.00"/>
        <vehicle id="o1" x="-17.08" y="-1.60" angle="90.00" type="EBUS" speed="18.42" pos="182.92" lane="e1to2_0" slope="0.00"/>
    </timestep>
    <timestep time="5.10">
        <vehicle id="d1" x="18.11" y="-1.60" angle="90.00" type="EBUS2" speed="7.53" pos="18.11" lane="e2to3_0" slope="0.00"/>
        <vehicle id="d2" x="8.73" y="-1.60" angle="90.00" type="EBUS2" speed="8.84" pos="8.73" lane="e2to3_0" slope="0.00"/>
        <vehicle id="o1" x="-15.24" y="-1.60" angle="90.00" type="EBUS" speed="18.42" pos="184.76" lane="e1to2_0" slope="0.00"/>
    </timestep>
    <timestep time="5.20">
        <vehicle id="d1" x="18.88" y="-1.60" angle="90.00" type="EBUS2" speed="7.68" pos="18.88" lane="e2to3_0" slope="0.00"/>
        <vehicle id="d2" x="9.61" y="-1.60" angle="90.00" type="EBUS2" speed="8.86" pos="9.61" lane="e2to3_0" slope="0.00"/>
        <vehicle id="o1" x="-13.39" y="-1.60" angle="90.00" type="EBUS" speed="18.42" pos="186.61" lane="e1to2_0" slope="0.00"/>
    </timestep>
    <timestep time="5.30">
        <vehicle id="d1" x="19.66" y="-1.60" angle="90.00" type="EBUS2" speed="7.83" pos="19.66" lane="e2to3_0" slope="0.00"/>
        <vehicle id="d2" x="10.50" y="-1.60" angle="90.00" type="EBUS2" speed="8.89" pos="10.50" lane="e2to3_0" slope="0.00"/>
        <vehicle id="o1" x="-11.59" y="-1.60" angle="90.00" type="EBUS" speed="18.07" pos="188.41" lane="e1to2_0" slope="0.00"/>
    </timestep>
    <timestep time="5.40">
        <vehicle id="d1" x="20.46" y="-1.60" angle="90.00" type="EBUS2" speed="7.98" pos="20.46" lane="e2to3_0" slope="0.00"/>
        <vehicle id="d2" x="11.39" y="-1.60" angle="90.00" type="EBUS2" speed="8.93" pos="11.39" lane="e2to3_0" slope="0.00"/>
        <vehicle id="o1" x="-9.82" y="-1.60" angle="90.00" type="EBUS" speed="17.70" pos="190.18" lane="e1to2_0" slope="0.00"/>
    </timestep>
    <timestep time="5.50">
        <vehicle id="d1" x="21.28" y="-1.60" angle="90.00" type="EBUS2" speed="8.13" pos="21.28" lane="e2to3_0" slope="0.00"/>
        <vehicle id="d2" x="12.29" y="-1.60" angle="90.00" type="EBUS2" speed="8.97" pos="12.29" lane="e2to3_0" slope="0.00"/>
        <vehicle id="o1" x="-8.08" y="-1.60" angle="90.00" type="EBUS" speed="17.34" pos="191.92" lane="e1to2_0" slope="0.00"/>
    </timestep>
    <timestep time="5.60">
        <vehicle id="d1" x="22.10" y="-1.60" angle="90.00" type="EBUS2" speed="8.29" pos="22.10" lane="e2to3_0" slope="0.00"/>
        <vehicle id="d2" x="13.19" y="-1.60" angle="90.00" type="EBUS2" speed="9.02" pos="13.19" lane="e2to3_0" slope="0.00"/>
        <vehicle id="o1" x="-6.38" y="-1.60" angle="90.00" type="EBUS" speed="17.00" pos="193.62" lane="e1to2_0" slope="0.00"/>
    </timestep>
    <timestep time="5.70">
        <vehicle id="d1" x="22.95" y="-1.60" angle="90.00" type="EBUS2" speed="8.44" pos="22.95" lane="e2to3_0" slope="0.00"/>
        <vehicle id="d2" x="14.10" y="-1.60" angle="90.00" type="EBUS2" speed="9.09" pos="14.10" lane="e2to3_0" slope="0.00"/>
        <vehicle id="o1" x="-4.72" y="-1.60" angle="90.00" type="EBUS" speed="16.66" pos="195.28" lane="e1to2_0" slope="0.00"/>
    </timestep>
    <timestep time="5.80">
        <vehicle id="d1" x="23.81" y="-1.60" angle="90.00" type="EBUS2" speed="8.59" pos="23.81" lane="e2to3_0" slope="0.00"/>
        <vehicle id="d2" x="15.02" y="-1.60" angle="90.00" type="EBUS2" speed="9.16" pos="15.02" lane="e2to3_0" slope="0.00"/>
        <vehicle id="o1" x="-3.08" y="-1.60" angle="90.00" type="EBUS" speed="16.36" pos="196.92" lane="e1to2_0" slope="0.00"/>
    </timestep>
    <timestep time="5.90">
        <vehicle id="d1" x="24.68" y="-1.60" angle="90.00" type="EBUS2" speed="8.74" pos="24.68" lane="e2to3_0" slope="0.00"/>
        <vehicle id="d2" x="15.94" y="-1.60" angle="90.00" type="EBUS2" speed="9.24" pos="15.94" lane="e2to3_0" slope="0.00"/>
        <vehicle id="o1" x="-1.47" y="-1.60" angle="90.00" type="EBUS" speed="16.06" pos="198.53" lane="e1to2_0" slope="0.00"/>
    </timestep>
    <timestep time="6.00">
        <vehicle id="d1" x="25.57" y="-1.60" angle="90.00" type="EBUS2" speed="8.89" pos="25.57" lane="e2to3_0" slope="0.00"/>
        <vehicle id="d2" x="16.87" y="-1.60" angle="90.00" type="EBUS2" speed="9.32" pos="16.87" lane="e2to3_0" slope="0.00"/>
        <vehicle id="o1" x="0.00" y="-1.60" angle="90.00" type="EBUS" speed="15.78" pos="0.00" lane="e2to3_0" slope="0.00"/>
    </timestep>
</fcd-export>
