<?xml version="1.0" encoding="UTF-8"?>

<!-- generated on 2023-06-13 13:48:52 by Eclipse SUMO libsumo Version v1_15_0+0841-ec7ac00463d
<configuration xmlns:xsi="http://www.w3.org/2001/XMLSchema-instance" xsi:noNamespaceSchemaLocation="http://sumo.dlr.de/xsd/libsumoConfiguration.xsd">

    <input>
        <net-file value="/home/liuli/myCodes/SUMONBDT//sumoCfgs1/my1Lane1TLS.net.xml"/>
        <route-files value="/home/liuli/myCodes/SUMONBDT//sumoCfgs1/m1Lane1Tls.rou.xml"/>
    </input>

    <output>
        <fcd-output value="/home/liuli/myCodes/SUMONBDT//sumoCfgs1/fcd-output.xml"/>
        <full-output value="/home/liuli/myCodes/SUMONBDT//sumoCfgs1/full-output.xml"/>
        <summary-output value="/home/liuli/myCodes/SUMONBDT//sumoCfgs1/summary.xml"/>
    </output>

    <time>
        <begin value="0"/>
        <end value="50"/>
        <step-length value="0.1"/>
    </time>

    <report>
        <no-warnings value="true"/>
    </report>

</configuration>
-->

<fcd-export xmlns:xsi="http://www.w3.org/2001/XMLSchema-instance" xsi:noNamespaceSchemaLocation="http://sumo.dlr.de/xsd/fcd_file.xsd">
    <timestep time="0.00"/>
    <timestep time="0.10">
        <vehicle id="d1" x="-1.00" y="-1.60" angle="90.00" type="EBUS2" speed="0.00" pos="199.00" lane="e1to2_0" slope="0.00"/>
        <vehicle id="d2" x="-6.52" y="-1.60" angle="90.00" type="EBUS2" speed="0.06" pos="193.48" lane="e1to2_0" slope="0.00"/>
        <vehicle id="d3" x="-12.29" y="-1.60" angle="90.00" type="EBUS2" speed="0.65" pos="187.71" lane="e1to2_0" slope="0.00"/>
        <vehicle id="o1" x="-41.16" y="-1.60" angle="90.00" type="EBUS" speed="1.62" pos="158.84" lane="e1to2_0" slope="0.00"/>
    </timestep>
</fcd-export>
